export BASH_ENV=/etc/profile.d/modules.sh

     Program PWSCF v.7.2 starts on  9Jan2024 at 22:22:52 

     This program is part of the open-source Quantum ESPRESSO suite
     for quantum simulation of materials; please cite
         "P. Giannozzi et al., J. Phys.:Condens. Matter 21 395502 (2009);
         "P. Giannozzi et al., J. Phys.:Condens. Matter 29 465901 (2017);
         "P. Giannozzi et al., J. Chem. Phys. 152 154105 (2020);
          URL http://www.quantum-espresso.org", 
     in publications or presentations arising from this work. More details at
     http://www.quantum-espresso.org/quote

     Parallel version (MPI & OpenMP), running on       2 processor cores
     Number of MPI processes:                 2
     Threads/MPI process:                     1

     MPI processes distributed on     2 nodes
     240494 MiB available memory on the printing compute node when the environment starts
 
     Reading input from MoTe2_bands.in

     Current dimensions of program PWSCF are:
     Max number of different atomic species (ntypx) = 10
     Max number of k-points (npk) =  40000
     Max angular momentum in pseudopotentials (lmaxx) =  4

     Atomic positions and unit cell read from directory:
     ./outdir/MoTe2.save/
     Atomic positions from file used, from input discarded
 
 
     R & G space division:  proc/nbgrp/npool/nimage =       2
     Subspace diagonalization in iterative solution of the eigenvalue problem:
     a serial algorithm will be used

 
     Parallelization info
     --------------------
     sticks:   dense  smooth     PW     G-vecs:    dense   smooth      PW
     Min         501     501    141                63787    63787    9765
     Max         502     502    142                63792    63792    9784
     Sum        1003    1003    283               127579   127579   19549
 
     Using Slab Decomposition
 


     bravais-lattice index     =            4
     lattice parameter (alat)  =       6.7094  a.u.
     unit-cell volume          =    1321.0864 (a.u.)^3
     number of atoms/cell      =            3
     number of atomic types    =            2
     number of electrons       =        46.00
     number of Kohn-Sham states=           46
     kinetic-energy cutoff     =      80.0000  Ry
     charge density cutoff     =     320.0000  Ry
     Exchange-correlation= PBE
                           (   1   4   3   4   0   0   0)

     celldm(1)=   6.709444  celldm(2)=   0.000000  celldm(3)=   5.050578
     celldm(4)=   0.000000  celldm(5)=   0.000000  celldm(6)=   0.000000

     crystal axes: (cart. coord. in units of alat)
               a(1) = (   1.000000   0.000000   0.000000 )  
               a(2) = (  -0.500000   0.866025   0.000000 )  
               a(3) = (   0.000000   0.000000   5.050578 )  

     reciprocal axes: (cart. coord. in units 2 pi/alat)
               b(1) = (  1.000000  0.577350  0.000000 )  
               b(2) = (  0.000000  1.154701  0.000000 )  
               b(3) = (  0.000000  0.000000  0.197997 )  


     PseudoPot. # 1 for Mo read from file:
     ./Mo.upf
     MD5 check sum: 7ca7a9feba7bf08d88d14bc7fbf60c1e
     Pseudo is Norm-conserving + core correction, Zval = 14.0
     Generated using ONCVPSP code by D. R. Hamann
     Using radial grid of 1640 points,  6 beta functions with: 
                l(1) =   0
                l(2) =   0
                l(3) =   1
                l(4) =   1
                l(5) =   2
                l(6) =   2

     PseudoPot. # 2 for Te read from file:
     ./Te.upf
     MD5 check sum: 5809bc2f3532353a97804e96cbe9e3f7
     Pseudo is Norm-conserving + core correction, Zval = 16.0
     Generated using ONCVPSP code by D. R. Hamann
     Using radial grid of 1294 points,  9 beta functions with: 
                l(1) =   0
                l(2) =   0
                l(3) =   0
                l(4) =   1
                l(5) =   1
                l(6) =   2
                l(7) =   2
                l(8) =   3
                l(9) =   3

     atomic species   valence    mass     pseudopotential
        Mo            14.00    95.96000     Mo( 1.00)
        Te            16.00   127.60000     Te( 1.00)

     12 Sym. Ops. (no inversion) found


                                    s                        frac. trans.

      isym =  1     identity                                     

 cryst.   s( 1) = (     1          0          0      )
                  (     0          1          0      )
                  (     0          0          1      )

 cart.    s( 1) = (  1.0000000 -0.0000000  0.0000000 )
                  (  0.0000000  1.0000000  0.0000000 )
                  (  0.0000000  0.0000000  1.0000000 )


      isym =  2     180 deg rotation - cart. axis [0,1,0]        

 cryst.   s( 2) = (    -1          0          0      )
                  (     1          1          0      )
                  (     0          0         -1      )

 cart.    s( 2) = ( -1.0000000  0.0000000  0.0000000 )
                  (  0.0000000  1.0000000  0.0000000 )
                  (  0.0000000  0.0000000 -1.0000000 )


      isym =  3     120 deg rotation - cryst. axis [0,0,1]       

 cryst.   s( 3) = (     0          1          0      )
                  (    -1         -1          0      )
                  (     0          0          1      )

 cart.    s( 3) = ( -0.5000000 -0.8660254  0.0000000 )
                  (  0.8660254 -0.5000000  0.0000000 )
                  (  0.0000000  0.0000000  1.0000000 )


      isym =  4     120 deg rotation - cryst. axis [0,0,-1]      

 cryst.   s( 4) = (    -1         -1          0      )
                  (     1          0          0      )
                  (     0          0          1      )

 cart.    s( 4) = ( -0.5000000  0.8660254  0.0000000 )
                  ( -0.8660254 -0.5000000  0.0000000 )
                  (  0.0000000  0.0000000  1.0000000 )


      isym =  5     180 deg rotation - cryst. axis [1,-1,0]      

 cryst.   s( 5) = (     0         -1          0      )
                  (    -1          0          0      )
                  (     0          0         -1      )

 cart.    s( 5) = (  0.5000000 -0.8660254  0.0000000 )
                  ( -0.8660254 -0.5000000  0.0000000 )
                  (  0.0000000  0.0000000 -1.0000000 )


      isym =  6     180 deg rotation - cryst. axis [2,1,0]       

 cryst.   s( 6) = (     1          1          0      )
                  (     0         -1          0      )
                  (     0          0         -1      )

 cart.    s( 6) = (  0.5000000  0.8660254  0.0000000 )
                  (  0.8660254 -0.5000000  0.0000000 )
                  (  0.0000000  0.0000000 -1.0000000 )


      isym =  7     inv. 180 deg rotation - cart. axis [0,0,1]   

 cryst.   s( 7) = (     1          0          0      )
                  (     0          1          0      )
                  (     0          0         -1      )

 cart.    s( 7) = (  1.0000000 -0.0000000  0.0000000 )
                  (  0.0000000  1.0000000  0.0000000 )
                  (  0.0000000  0.0000000 -1.0000000 )


      isym =  8     inv. 180 deg rotation - cart. axis [1,0,0]   

 cryst.   s( 8) = (    -1          0          0      )
                  (     1          1          0      )
                  (     0          0          1      )

 cart.    s( 8) = ( -1.0000000  0.0000000  0.0000000 )
                  (  0.0000000  1.0000000  0.0000000 )
                  (  0.0000000  0.0000000  1.0000000 )


      isym =  9     inv.  60 deg rotation - cryst. axis [0,0,1]  

 cryst.   s( 9) = (    -1         -1          0      )
                  (     1          0          0      )
                  (     0          0         -1      )

 cart.    s( 9) = ( -0.5000000  0.8660254  0.0000000 )
                  ( -0.8660254 -0.5000000  0.0000000 )
                  (  0.0000000  0.0000000 -1.0000000 )


      isym = 10     inv.  60 deg rotation - cryst. axis [0,0,-1] 

 cryst.   s(10) = (     0          1          0      )
                  (    -1         -1          0      )
                  (     0          0         -1      )

 cart.    s(10) = ( -0.5000000 -0.8660254  0.0000000 )
                  (  0.8660254 -0.5000000  0.0000000 )
                  (  0.0000000  0.0000000 -1.0000000 )


      isym = 11     inv. 180 deg rotation - cryst. axis [0,1,0]  

 cryst.   s(11) = (     1          1          0      )
                  (     0         -1          0      )
                  (     0          0          1      )

 cart.    s(11) = (  0.5000000  0.8660254  0.0000000 )
                  (  0.8660254 -0.5000000  0.0000000 )
                  (  0.0000000  0.0000000  1.0000000 )


      isym = 12     inv. 180 deg rotation - cryst. axis [1,1,0]  

 cryst.   s(12) = (     0         -1          0      )
                  (    -1          0          0      )
                  (     0          0          1      )

 cart.    s(12) = (  0.5000000 -0.8660254  0.0000000 )
                  ( -0.8660254 -0.5000000  0.0000000 )
                  (  0.0000000  0.0000000  1.0000000 )


     point group D_3h (-62m)
     there are  6 classes
     the character table:

       E     2C3   3C2   s_h   2S3   3s_v 
A'_1   1.00  1.00  1.00  1.00  1.00  1.00
A'_2   1.00  1.00 -1.00  1.00  1.00 -1.00
E'     2.00 -1.00  0.00  2.00 -1.00  0.00
A''1   1.00  1.00  1.00 -1.00 -1.00 -1.00
A''2   1.00  1.00 -1.00 -1.00 -1.00  1.00
E''    2.00 -1.00  0.00 -2.00  1.00  0.00

     the symmetry operations in each class and the name of the first element:

     E        1
          identity                                               
     2C3      3    4
          120 deg rotation - cryst. axis [0,0,1]                 
     3C2      2    6    5
          180 deg rotation - cart. axis [0,1,0]                  
     s_h      7
          inv. 180 deg rotation - cart. axis [0,0,1]             
     2S3      9   10
          inv.  60 deg rotation - cryst. axis [0,0,1]            
     3s_v     8   11   12
          inv. 180 deg rotation - cart. axis [1,0,0]             

   Cartesian axes

     site n.     atom                  positions (alat units)
         1           Te  tau(   1) = (  -0.0000000   0.5773503   4.5377065  )
         2           Te  tau(   2) = (  -0.0000000   0.5773503   0.5128712  )
         3           Mo  tau(   3) = (   0.0000000   0.0000000   0.0000000  )

   Crystallographic axes

     site n.     atom                  positions (cryst. coord.)
         1           Te  tau(   1) = (  0.3333333  0.6666667  0.8984530  )
         2           Te  tau(   2) = (  0.3333333  0.6666667  0.1015470  )
         3           Mo  tau(   3) = (  0.0000000  0.0000000  0.0000000  )

     number of k points=   470
                       cart. coord. in units 2pi/alat
        k(    1) = (   0.0000000   0.0000000   0.0000000), wk =   0.0042553
        k(    2) = (   0.0128205   0.0074019   0.0000000), wk =   0.0042553
        k(    3) = (   0.0256410   0.0148039   0.0000000), wk =   0.0042553
        k(    4) = (   0.0384615   0.0222058   0.0000000), wk =   0.0042553
        k(    5) = (   0.0512821   0.0296077   0.0000000), wk =   0.0042553
        k(    6) = (   0.0641026   0.0370096   0.0000000), wk =   0.0042553
        k(    7) = (   0.0769231   0.0444116   0.0000000), wk =   0.0042553
        k(    8) = (   0.0897436   0.0518135   0.0000000), wk =   0.0042553
        k(    9) = (   0.1025641   0.0592154   0.0000000), wk =   0.0042553
        k(   10) = (   0.1153846   0.0666173   0.0000000), wk =   0.0042553
        k(   11) = (   0.1282051   0.0740193   0.0000000), wk =   0.0042553
        k(   12) = (   0.1410256   0.0814212   0.0000000), wk =   0.0042553
        k(   13) = (   0.1538462   0.0888231   0.0000000), wk =   0.0042553
        k(   14) = (   0.1666667   0.0962250   0.0000000), wk =   0.0042553
        k(   15) = (   0.1794872   0.1036270   0.0000000), wk =   0.0042553
        k(   16) = (   0.1923077   0.1110289   0.0000000), wk =   0.0042553
        k(   17) = (   0.2051282   0.1184308   0.0000000), wk =   0.0042553
        k(   18) = (   0.2179487   0.1258328   0.0000000), wk =   0.0042553
        k(   19) = (   0.2307692   0.1332347   0.0000000), wk =   0.0042553
        k(   20) = (   0.2435897   0.1406366   0.0000000), wk =   0.0042553
        k(   21) = (   0.2564103   0.1480385   0.0000000), wk =   0.0042553
        k(   22) = (   0.2692308   0.1554405   0.0000000), wk =   0.0042553
        k(   23) = (   0.2820513   0.1628424   0.0000000), wk =   0.0042553
        k(   24) = (   0.2948718   0.1702443   0.0000000), wk =   0.0042553
        k(   25) = (   0.3076923   0.1776462   0.0000000), wk =   0.0042553
        k(   26) = (   0.3205128   0.1850482   0.0000000), wk =   0.0042553
        k(   27) = (   0.3333333   0.1924501   0.0000000), wk =   0.0042553
        k(   28) = (   0.3461538   0.1998520   0.0000000), wk =   0.0042553
        k(   29) = (   0.3589744   0.2072539   0.0000000), wk =   0.0042553
        k(   30) = (   0.3717949   0.2146559   0.0000000), wk =   0.0042553
        k(   31) = (   0.3846154   0.2220578   0.0000000), wk =   0.0042553
        k(   32) = (   0.3974359   0.2294597   0.0000000), wk =   0.0042553
        k(   33) = (   0.4102564   0.2368616   0.0000000), wk =   0.0042553
        k(   34) = (   0.4230769   0.2442636   0.0000000), wk =   0.0042553
        k(   35) = (   0.4358974   0.2516655   0.0000000), wk =   0.0042553
        k(   36) = (   0.4487179   0.2590674   0.0000000), wk =   0.0042553
        k(   37) = (   0.4615385   0.2664694   0.0000000), wk =   0.0042553
        k(   38) = (   0.4743590   0.2738713   0.0000000), wk =   0.0042553
        k(   39) = (   0.4871795   0.2812732   0.0000000), wk =   0.0042553
        k(   40) = (   0.5000000   0.2886751   0.0000000), wk =   0.0042553
        k(   41) = (   0.4924242   0.3017967   0.0000000), wk =   0.0042553
        k(   42) = (   0.4848485   0.3149183   0.0000000), wk =   0.0042553
        k(   43) = (   0.4772727   0.3280399   0.0000000), wk =   0.0042553
        k(   44) = (   0.4696970   0.3411615   0.0000000), wk =   0.0042553
        k(   45) = (   0.4621212   0.3542831   0.0000000), wk =   0.0042553
        k(   46) = (   0.4545455   0.3674047   0.0000000), wk =   0.0042553
        k(   47) = (   0.4469697   0.3805263   0.0000000), wk =   0.0042553
        k(   48) = (   0.4393939   0.3936479   0.0000000), wk =   0.0042553
        k(   49) = (   0.4318182   0.4067695   0.0000000), wk =   0.0042553
        k(   50) = (   0.4242424   0.4198911   0.0000000), wk =   0.0042553
        k(   51) = (   0.4166667   0.4330127   0.0000000), wk =   0.0042553
        k(   52) = (   0.4090909   0.4461343   0.0000000), wk =   0.0042553
        k(   53) = (   0.4015152   0.4592559   0.0000000), wk =   0.0042553
        k(   54) = (   0.3939394   0.4723775   0.0000000), wk =   0.0042553
        k(   55) = (   0.3863636   0.4854991   0.0000000), wk =   0.0042553
        k(   56) = (   0.3787879   0.4986207   0.0000000), wk =   0.0042553
        k(   57) = (   0.3712121   0.5117423   0.0000000), wk =   0.0042553
        k(   58) = (   0.3636364   0.5248639   0.0000000), wk =   0.0042553
        k(   59) = (   0.3560606   0.5379855   0.0000000), wk =   0.0042553
        k(   60) = (   0.3484848   0.5511071   0.0000000), wk =   0.0042553
        k(   61) = (   0.3409091   0.5642287   0.0000000), wk =   0.0042553
        k(   62) = (   0.3333333   0.5773503   0.0000000), wk =   0.0042553
        k(   63) = (   0.3260870   0.5647992   0.0000000), wk =   0.0042553
        k(   64) = (   0.3188406   0.5522481   0.0000000), wk =   0.0042553
        k(   65) = (   0.3115942   0.5396970   0.0000000), wk =   0.0042553
        k(   66) = (   0.3043478   0.5271459   0.0000000), wk =   0.0042553
        k(   67) = (   0.2971014   0.5145948   0.0000000), wk =   0.0042553
        k(   68) = (   0.2898551   0.5020437   0.0000000), wk =   0.0042553
        k(   69) = (   0.2826087   0.4894926   0.0000000), wk =   0.0042553
        k(   70) = (   0.2753623   0.4769415   0.0000000), wk =   0.0042553
        k(   71) = (   0.2681159   0.4643904   0.0000000), wk =   0.0042553
        k(   72) = (   0.2608696   0.4518393   0.0000000), wk =   0.0042553
        k(   73) = (   0.2536232   0.4392882   0.0000000), wk =   0.0042553
        k(   74) = (   0.2463768   0.4267372   0.0000000), wk =   0.0042553
        k(   75) = (   0.2391304   0.4141861   0.0000000), wk =   0.0042553
        k(   76) = (   0.2318841   0.4016350   0.0000000), wk =   0.0042553
        k(   77) = (   0.2246377   0.3890839   0.0000000), wk =   0.0042553
        k(   78) = (   0.2173913   0.3765328   0.0000000), wk =   0.0042553
        k(   79) = (   0.2101449   0.3639817   0.0000000), wk =   0.0042553
        k(   80) = (   0.2028986   0.3514306   0.0000000), wk =   0.0042553
        k(   81) = (   0.1956522   0.3388795   0.0000000), wk =   0.0042553
        k(   82) = (   0.1884058   0.3263284   0.0000000), wk =   0.0042553
        k(   83) = (   0.1811594   0.3137773   0.0000000), wk =   0.0042553
        k(   84) = (   0.1739130   0.3012262   0.0000000), wk =   0.0042553
        k(   85) = (   0.1666667   0.2886751   0.0000000), wk =   0.0042553
        k(   86) = (   0.1594203   0.2761240   0.0000000), wk =   0.0042553
        k(   87) = (   0.1521739   0.2635729   0.0000000), wk =   0.0042553
        k(   88) = (   0.1449275   0.2510219   0.0000000), wk =   0.0042553
        k(   89) = (   0.1376812   0.2384708   0.0000000), wk =   0.0042553
        k(   90) = (   0.1304348   0.2259197   0.0000000), wk =   0.0042553
        k(   91) = (   0.1231884   0.2133686   0.0000000), wk =   0.0042553
        k(   92) = (   0.1159420   0.2008175   0.0000000), wk =   0.0042553
        k(   93) = (   0.1086957   0.1882664   0.0000000), wk =   0.0042553
        k(   94) = (   0.1014493   0.1757153   0.0000000), wk =   0.0042553
        k(   95) = (   0.0942029   0.1631642   0.0000000), wk =   0.0042553
        k(   96) = (   0.0869565   0.1506131   0.0000000), wk =   0.0042553
        k(   97) = (   0.0797101   0.1380620   0.0000000), wk =   0.0042553
        k(   98) = (   0.0724638   0.1255109   0.0000000), wk =   0.0042553
        k(   99) = (   0.0652174   0.1129598   0.0000000), wk =   0.0042553
        k(  100) = (   0.0579710   0.1004087   0.0000000), wk =   0.0042553
        k(  101) = (   0.0507246   0.0878576   0.0000000), wk =   0.0042553
        k(  102) = (   0.0434783   0.0753066   0.0000000), wk =   0.0042553
        k(  103) = (   0.0362319   0.0627555   0.0000000), wk =   0.0042553
        k(  104) = (   0.0289855   0.0502044   0.0000000), wk =   0.0042553
        k(  105) = (   0.0217391   0.0376533   0.0000000), wk =   0.0042553
        k(  106) = (   0.0144928   0.0251022   0.0000000), wk =   0.0042553
        k(  107) = (   0.0072464   0.0125511   0.0000000), wk =   0.0042553
        k(  108) = (   0.0000000   0.0000000   0.0000000), wk =   0.0042553
        k(  109) = (   0.0000000   0.0000000   0.0164998), wk =   0.0042553
        k(  110) = (   0.0000000   0.0000000   0.0329995), wk =   0.0042553
        k(  111) = (   0.0000000   0.0000000   0.0494993), wk =   0.0042553
        k(  112) = (   0.0000000   0.0000000   0.0659991), wk =   0.0042553
        k(  113) = (   0.0000000   0.0000000   0.0824988), wk =   0.0042553
        k(  114) = (   0.0000000   0.0000000   0.0989986), wk =   0.0042553
        k(  115) = (   0.0128205   0.0074019   0.0989986), wk =   0.0042553
        k(  116) = (   0.0256410   0.0148039   0.0989986), wk =   0.0042553
        k(  117) = (   0.0384615   0.0222058   0.0989986), wk =   0.0042553
        k(  118) = (   0.0512821   0.0296077   0.0989986), wk =   0.0042553
        k(  119) = (   0.0641026   0.0370096   0.0989986), wk =   0.0042553
        k(  120) = (   0.0769231   0.0444116   0.0989986), wk =   0.0042553
        k(  121) = (   0.0897436   0.0518135   0.0989986), wk =   0.0042553
        k(  122) = (   0.1025641   0.0592154   0.0989986), wk =   0.0042553
        k(  123) = (   0.1153846   0.0666173   0.0989986), wk =   0.0042553
        k(  124) = (   0.1282051   0.0740193   0.0989986), wk =   0.0042553
        k(  125) = (   0.1410256   0.0814212   0.0989986), wk =   0.0042553
        k(  126) = (   0.1538462   0.0888231   0.0989986), wk =   0.0042553
        k(  127) = (   0.1666667   0.0962250   0.0989986), wk =   0.0042553
        k(  128) = (   0.1794872   0.1036270   0.0989986), wk =   0.0042553
        k(  129) = (   0.1923077   0.1110289   0.0989986), wk =   0.0042553
        k(  130) = (   0.2051282   0.1184308   0.0989986), wk =   0.0042553
        k(  131) = (   0.2179487   0.1258328   0.0989986), wk =   0.0042553
        k(  132) = (   0.2307692   0.1332347   0.0989986), wk =   0.0042553
        k(  133) = (   0.2435897   0.1406366   0.0989986), wk =   0.0042553
        k(  134) = (   0.2564103   0.1480385   0.0989986), wk =   0.0042553
        k(  135) = (   0.2692308   0.1554405   0.0989986), wk =   0.0042553
        k(  136) = (   0.2820513   0.1628424   0.0989986), wk =   0.0042553
        k(  137) = (   0.2948718   0.1702443   0.0989986), wk =   0.0042553
        k(  138) = (   0.3076923   0.1776462   0.0989986), wk =   0.0042553
        k(  139) = (   0.3205128   0.1850482   0.0989986), wk =   0.0042553
        k(  140) = (   0.3333333   0.1924501   0.0989986), wk =   0.0042553
        k(  141) = (   0.3461538   0.1998520   0.0989986), wk =   0.0042553
        k(  142) = (   0.3589744   0.2072539   0.0989986), wk =   0.0042553
        k(  143) = (   0.3717949   0.2146559   0.0989986), wk =   0.0042553
        k(  144) = (   0.3846154   0.2220578   0.0989986), wk =   0.0042553
        k(  145) = (   0.3974359   0.2294597   0.0989986), wk =   0.0042553
        k(  146) = (   0.4102564   0.2368616   0.0989986), wk =   0.0042553
        k(  147) = (   0.4230769   0.2442636   0.0989986), wk =   0.0042553
        k(  148) = (   0.4358974   0.2516655   0.0989986), wk =   0.0042553
        k(  149) = (   0.4487179   0.2590674   0.0989986), wk =   0.0042553
        k(  150) = (   0.4615385   0.2664694   0.0989986), wk =   0.0042553
        k(  151) = (   0.4743590   0.2738713   0.0989986), wk =   0.0042553
        k(  152) = (   0.4871795   0.2812732   0.0989986), wk =   0.0042553
        k(  153) = (   0.5000000   0.2886751   0.0989986), wk =   0.0042553
        k(  154) = (   0.4924242   0.3017967   0.0989986), wk =   0.0042553
        k(  155) = (   0.4848485   0.3149183   0.0989986), wk =   0.0042553
        k(  156) = (   0.4772727   0.3280399   0.0989986), wk =   0.0042553
        k(  157) = (   0.4696970   0.3411615   0.0989986), wk =   0.0042553
        k(  158) = (   0.4621212   0.3542831   0.0989986), wk =   0.0042553
        k(  159) = (   0.4545455   0.3674047   0.0989986), wk =   0.0042553
        k(  160) = (   0.4469697   0.3805263   0.0989986), wk =   0.0042553
        k(  161) = (   0.4393939   0.3936479   0.0989986), wk =   0.0042553
        k(  162) = (   0.4318182   0.4067695   0.0989986), wk =   0.0042553
        k(  163) = (   0.4242424   0.4198911   0.0989986), wk =   0.0042553
        k(  164) = (   0.4166667   0.4330127   0.0989986), wk =   0.0042553
        k(  165) = (   0.4090909   0.4461343   0.0989986), wk =   0.0042553
        k(  166) = (   0.4015152   0.4592559   0.0989986), wk =   0.0042553
        k(  167) = (   0.3939394   0.4723775   0.0989986), wk =   0.0042553
        k(  168) = (   0.3863636   0.4854991   0.0989986), wk =   0.0042553
        k(  169) = (   0.3787879   0.4986207   0.0989986), wk =   0.0042553
        k(  170) = (   0.3712121   0.5117423   0.0989986), wk =   0.0042553
        k(  171) = (   0.3636364   0.5248639   0.0989986), wk =   0.0042553
        k(  172) = (   0.3560606   0.5379855   0.0989986), wk =   0.0042553
        k(  173) = (   0.3484848   0.5511071   0.0989986), wk =   0.0042553
        k(  174) = (   0.3409091   0.5642287   0.0989986), wk =   0.0042553
        k(  175) = (   0.3333333   0.5773503   0.0989986), wk =   0.0042553
        k(  176) = (   0.3260870   0.5647992   0.0989986), wk =   0.0042553
        k(  177) = (   0.3188406   0.5522481   0.0989986), wk =   0.0042553
        k(  178) = (   0.3115942   0.5396970   0.0989986), wk =   0.0042553
        k(  179) = (   0.3043478   0.5271459   0.0989986), wk =   0.0042553
        k(  180) = (   0.2971014   0.5145948   0.0989986), wk =   0.0042553
        k(  181) = (   0.2898551   0.5020437   0.0989986), wk =   0.0042553
        k(  182) = (   0.2826087   0.4894926   0.0989986), wk =   0.0042553
        k(  183) = (   0.2753623   0.4769415   0.0989986), wk =   0.0042553
        k(  184) = (   0.2681159   0.4643904   0.0989986), wk =   0.0042553
        k(  185) = (   0.2608696   0.4518393   0.0989986), wk =   0.0042553
        k(  186) = (   0.2536232   0.4392882   0.0989986), wk =   0.0042553
        k(  187) = (   0.2463768   0.4267372   0.0989986), wk =   0.0042553
        k(  188) = (   0.2391304   0.4141861   0.0989986), wk =   0.0042553
        k(  189) = (   0.2318841   0.4016350   0.0989986), wk =   0.0042553
        k(  190) = (   0.2246377   0.3890839   0.0989986), wk =   0.0042553
        k(  191) = (   0.2173913   0.3765328   0.0989986), wk =   0.0042553
        k(  192) = (   0.2101449   0.3639817   0.0989986), wk =   0.0042553
        k(  193) = (   0.2028986   0.3514306   0.0989986), wk =   0.0042553
        k(  194) = (   0.1956522   0.3388795   0.0989986), wk =   0.0042553
        k(  195) = (   0.1884058   0.3263284   0.0989986), wk =   0.0042553
        k(  196) = (   0.1811594   0.3137773   0.0989986), wk =   0.0042553
        k(  197) = (   0.1739130   0.3012262   0.0989986), wk =   0.0042553
        k(  198) = (   0.1666667   0.2886751   0.0989986), wk =   0.0042553
        k(  199) = (   0.1594203   0.2761240   0.0989986), wk =   0.0042553
        k(  200) = (   0.1521739   0.2635729   0.0989986), wk =   0.0042553
        k(  201) = (   0.1449275   0.2510219   0.0989986), wk =   0.0042553
        k(  202) = (   0.1376812   0.2384708   0.0989986), wk =   0.0042553
        k(  203) = (   0.1304348   0.2259197   0.0989986), wk =   0.0042553
        k(  204) = (   0.1231884   0.2133686   0.0989986), wk =   0.0042553
        k(  205) = (   0.1159420   0.2008175   0.0989986), wk =   0.0042553
        k(  206) = (   0.1086957   0.1882664   0.0989986), wk =   0.0042553
        k(  207) = (   0.1014493   0.1757153   0.0989986), wk =   0.0042553
        k(  208) = (   0.0942029   0.1631642   0.0989986), wk =   0.0042553
        k(  209) = (   0.0869565   0.1506131   0.0989986), wk =   0.0042553
        k(  210) = (   0.0797101   0.1380620   0.0989986), wk =   0.0042553
        k(  211) = (   0.0724638   0.1255109   0.0989986), wk =   0.0042553
        k(  212) = (   0.0652174   0.1129598   0.0989986), wk =   0.0042553
        k(  213) = (   0.0579710   0.1004087   0.0989986), wk =   0.0042553
        k(  214) = (   0.0507246   0.0878576   0.0989986), wk =   0.0042553
        k(  215) = (   0.0434783   0.0753066   0.0989986), wk =   0.0042553
        k(  216) = (   0.0362319   0.0627555   0.0989986), wk =   0.0042553
        k(  217) = (   0.0289855   0.0502044   0.0989986), wk =   0.0042553
        k(  218) = (   0.0217391   0.0376533   0.0989986), wk =   0.0042553
        k(  219) = (   0.0144928   0.0251022   0.0989986), wk =   0.0042553
        k(  220) = (   0.0072464   0.0125511   0.0989986), wk =   0.0042553
        k(  221) = (   0.0000000   0.0000000   0.0989986), wk =   0.0042553
        k(  222) = (   0.5000000   0.2886751   0.0989986), wk =   0.0042553
        k(  223) = (   0.5000000   0.2886751   0.0824988), wk =   0.0042553
        k(  224) = (   0.5000000   0.2886751   0.0659991), wk =   0.0042553
        k(  225) = (   0.5000000   0.2886751   0.0494993), wk =   0.0042553
        k(  226) = (   0.5000000   0.2886751   0.0329995), wk =   0.0042553
        k(  227) = (   0.5000000   0.2886751   0.0164998), wk =   0.0042553
        k(  228) = (   0.5000000   0.2886751   0.0000000), wk =   0.0042553
        k(  229) = (   0.3333333   0.5773503   0.0989986), wk =   0.0042553
        k(  230) = (   0.3333333   0.5773503   0.0824988), wk =   0.0042553
        k(  231) = (   0.3333333   0.5773503   0.0659991), wk =   0.0042553
        k(  232) = (   0.3333333   0.5773503   0.0494993), wk =   0.0042553
        k(  233) = (   0.3333333   0.5773503   0.0329995), wk =   0.0042553
        k(  234) = (   0.3333333   0.5773503   0.0164998), wk =   0.0042553
        k(  235) = (   0.3333333   0.5773503   0.0000000), wk =   0.0042553
        k(  236) = (   0.0000000   0.0000000   0.0000000), wk =   0.0042553
        k(  237) = (  -0.0128205  -0.0074019   0.0000000), wk =   0.0042553
        k(  238) = (  -0.0256410  -0.0148039   0.0000000), wk =   0.0042553
        k(  239) = (  -0.0384615  -0.0222058   0.0000000), wk =   0.0042553
        k(  240) = (  -0.0512821  -0.0296077   0.0000000), wk =   0.0042553
        k(  241) = (  -0.0641026  -0.0370096   0.0000000), wk =   0.0042553
        k(  242) = (  -0.0769231  -0.0444116   0.0000000), wk =   0.0042553
        k(  243) = (  -0.0897436  -0.0518135   0.0000000), wk =   0.0042553
        k(  244) = (  -0.1025641  -0.0592154   0.0000000), wk =   0.0042553
        k(  245) = (  -0.1153846  -0.0666173   0.0000000), wk =   0.0042553
        k(  246) = (  -0.1282051  -0.0740193   0.0000000), wk =   0.0042553
        k(  247) = (  -0.1410256  -0.0814212   0.0000000), wk =   0.0042553
        k(  248) = (  -0.1538462  -0.0888231   0.0000000), wk =   0.0042553
        k(  249) = (  -0.1666667  -0.0962250   0.0000000), wk =   0.0042553
        k(  250) = (  -0.1794872  -0.1036270   0.0000000), wk =   0.0042553
        k(  251) = (  -0.1923077  -0.1110289   0.0000000), wk =   0.0042553
        k(  252) = (  -0.2051282  -0.1184308   0.0000000), wk =   0.0042553
        k(  253) = (  -0.2179487  -0.1258328   0.0000000), wk =   0.0042553
        k(  254) = (  -0.2307692  -0.1332347   0.0000000), wk =   0.0042553
        k(  255) = (  -0.2435897  -0.1406366   0.0000000), wk =   0.0042553
        k(  256) = (  -0.2564103  -0.1480385   0.0000000), wk =   0.0042553
        k(  257) = (  -0.2692308  -0.1554405   0.0000000), wk =   0.0042553
        k(  258) = (  -0.2820513  -0.1628424   0.0000000), wk =   0.0042553
        k(  259) = (  -0.2948718  -0.1702443   0.0000000), wk =   0.0042553
        k(  260) = (  -0.3076923  -0.1776462   0.0000000), wk =   0.0042553
        k(  261) = (  -0.3205128  -0.1850482   0.0000000), wk =   0.0042553
        k(  262) = (  -0.3333333  -0.1924501   0.0000000), wk =   0.0042553
        k(  263) = (  -0.3461538  -0.1998520   0.0000000), wk =   0.0042553
        k(  264) = (  -0.3589744  -0.2072539   0.0000000), wk =   0.0042553
        k(  265) = (  -0.3717949  -0.2146559   0.0000000), wk =   0.0042553
        k(  266) = (  -0.3846154  -0.2220578   0.0000000), wk =   0.0042553
        k(  267) = (  -0.3974359  -0.2294597   0.0000000), wk =   0.0042553
        k(  268) = (  -0.4102564  -0.2368616   0.0000000), wk =   0.0042553
        k(  269) = (  -0.4230769  -0.2442636   0.0000000), wk =   0.0042553
        k(  270) = (  -0.4358974  -0.2516655   0.0000000), wk =   0.0042553
        k(  271) = (  -0.4487179  -0.2590674   0.0000000), wk =   0.0042553
        k(  272) = (  -0.4615385  -0.2664694   0.0000000), wk =   0.0042553
        k(  273) = (  -0.4743590  -0.2738713   0.0000000), wk =   0.0042553
        k(  274) = (  -0.4871795  -0.2812732   0.0000000), wk =   0.0042553
        k(  275) = (  -0.5000000  -0.2886751   0.0000000), wk =   0.0042553
        k(  276) = (  -0.4924242  -0.3017967   0.0000000), wk =   0.0042553
        k(  277) = (  -0.4848485  -0.3149183   0.0000000), wk =   0.0042553
        k(  278) = (  -0.4772727  -0.3280399   0.0000000), wk =   0.0042553
        k(  279) = (  -0.4696970  -0.3411615   0.0000000), wk =   0.0042553
        k(  280) = (  -0.4621212  -0.3542831   0.0000000), wk =   0.0042553
        k(  281) = (  -0.4545455  -0.3674047   0.0000000), wk =   0.0042553
        k(  282) = (  -0.4469697  -0.3805263   0.0000000), wk =   0.0042553
        k(  283) = (  -0.4393939  -0.3936479   0.0000000), wk =   0.0042553
        k(  284) = (  -0.4318182  -0.4067695   0.0000000), wk =   0.0042553
        k(  285) = (  -0.4242424  -0.4198911   0.0000000), wk =   0.0042553
        k(  286) = (  -0.4166667  -0.4330127   0.0000000), wk =   0.0042553
        k(  287) = (  -0.4090909  -0.4461343   0.0000000), wk =   0.0042553
        k(  288) = (  -0.4015152  -0.4592559   0.0000000), wk =   0.0042553
        k(  289) = (  -0.3939394  -0.4723775   0.0000000), wk =   0.0042553
        k(  290) = (  -0.3863636  -0.4854991   0.0000000), wk =   0.0042553
        k(  291) = (  -0.3787879  -0.4986207   0.0000000), wk =   0.0042553
        k(  292) = (  -0.3712121  -0.5117423   0.0000000), wk =   0.0042553
        k(  293) = (  -0.3636364  -0.5248639   0.0000000), wk =   0.0042553
        k(  294) = (  -0.3560606  -0.5379855   0.0000000), wk =   0.0042553
        k(  295) = (  -0.3484848  -0.5511071   0.0000000), wk =   0.0042553
        k(  296) = (  -0.3409091  -0.5642287   0.0000000), wk =   0.0042553
        k(  297) = (  -0.3333333  -0.5773503   0.0000000), wk =   0.0042553
        k(  298) = (  -0.3260870  -0.5647992   0.0000000), wk =   0.0042553
        k(  299) = (  -0.3188406  -0.5522481   0.0000000), wk =   0.0042553
        k(  300) = (  -0.3115942  -0.5396970   0.0000000), wk =   0.0042553
        k(  301) = (  -0.3043478  -0.5271459   0.0000000), wk =   0.0042553
        k(  302) = (  -0.2971014  -0.5145948   0.0000000), wk =   0.0042553
        k(  303) = (  -0.2898551  -0.5020437   0.0000000), wk =   0.0042553
        k(  304) = (  -0.2826087  -0.4894926   0.0000000), wk =   0.0042553
        k(  305) = (  -0.2753623  -0.4769415   0.0000000), wk =   0.0042553
        k(  306) = (  -0.2681159  -0.4643904   0.0000000), wk =   0.0042553
        k(  307) = (  -0.2608696  -0.4518393   0.0000000), wk =   0.0042553
        k(  308) = (  -0.2536232  -0.4392882   0.0000000), wk =   0.0042553
        k(  309) = (  -0.2463768  -0.4267372   0.0000000), wk =   0.0042553
        k(  310) = (  -0.2391304  -0.4141861   0.0000000), wk =   0.0042553
        k(  311) = (  -0.2318841  -0.4016350   0.0000000), wk =   0.0042553
        k(  312) = (  -0.2246377  -0.3890839   0.0000000), wk =   0.0042553
        k(  313) = (  -0.2173913  -0.3765328   0.0000000), wk =   0.0042553
        k(  314) = (  -0.2101449  -0.3639817   0.0000000), wk =   0.0042553
        k(  315) = (  -0.2028986  -0.3514306   0.0000000), wk =   0.0042553
        k(  316) = (  -0.1956522  -0.3388795   0.0000000), wk =   0.0042553
        k(  317) = (  -0.1884058  -0.3263284   0.0000000), wk =   0.0042553
        k(  318) = (  -0.1811594  -0.3137773   0.0000000), wk =   0.0042553
        k(  319) = (  -0.1739130  -0.3012262   0.0000000), wk =   0.0042553
        k(  320) = (  -0.1666667  -0.2886751   0.0000000), wk =   0.0042553
        k(  321) = (  -0.1594203  -0.2761240   0.0000000), wk =   0.0042553
        k(  322) = (  -0.1521739  -0.2635729   0.0000000), wk =   0.0042553
        k(  323) = (  -0.1449275  -0.2510219   0.0000000), wk =   0.0042553
        k(  324) = (  -0.1376812  -0.2384708   0.0000000), wk =   0.0042553
        k(  325) = (  -0.1304348  -0.2259197   0.0000000), wk =   0.0042553
        k(  326) = (  -0.1231884  -0.2133686   0.0000000), wk =   0.0042553
        k(  327) = (  -0.1159420  -0.2008175   0.0000000), wk =   0.0042553
        k(  328) = (  -0.1086957  -0.1882664   0.0000000), wk =   0.0042553
        k(  329) = (  -0.1014493  -0.1757153   0.0000000), wk =   0.0042553
        k(  330) = (  -0.0942029  -0.1631642   0.0000000), wk =   0.0042553
        k(  331) = (  -0.0869565  -0.1506131   0.0000000), wk =   0.0042553
        k(  332) = (  -0.0797101  -0.1380620   0.0000000), wk =   0.0042553
        k(  333) = (  -0.0724638  -0.1255109   0.0000000), wk =   0.0042553
        k(  334) = (  -0.0652174  -0.1129598   0.0000000), wk =   0.0042553
        k(  335) = (  -0.0579710  -0.1004087   0.0000000), wk =   0.0042553
        k(  336) = (  -0.0507246  -0.0878576   0.0000000), wk =   0.0042553
        k(  337) = (  -0.0434783  -0.0753066   0.0000000), wk =   0.0042553
        k(  338) = (  -0.0362319  -0.0627555   0.0000000), wk =   0.0042553
        k(  339) = (  -0.0289855  -0.0502044   0.0000000), wk =   0.0042553
        k(  340) = (  -0.0217391  -0.0376533   0.0000000), wk =   0.0042553
        k(  341) = (  -0.0144928  -0.0251022   0.0000000), wk =   0.0042553
        k(  342) = (  -0.0072464  -0.0125511   0.0000000), wk =   0.0042553
        k(  343) = (   0.0000000   0.0000000   0.0000000), wk =   0.0042553
        k(  344) = (   0.0000000   0.0000000  -0.0164998), wk =   0.0042553
        k(  345) = (   0.0000000   0.0000000  -0.0329995), wk =   0.0042553
        k(  346) = (   0.0000000   0.0000000  -0.0494993), wk =   0.0042553
        k(  347) = (   0.0000000   0.0000000  -0.0659991), wk =   0.0042553
        k(  348) = (   0.0000000   0.0000000  -0.0824988), wk =   0.0042553
        k(  349) = (   0.0000000   0.0000000  -0.0989986), wk =   0.0042553
        k(  350) = (  -0.0128205  -0.0074019  -0.0989986), wk =   0.0042553
        k(  351) = (  -0.0256410  -0.0148039  -0.0989986), wk =   0.0042553
        k(  352) = (  -0.0384615  -0.0222058  -0.0989986), wk =   0.0042553
        k(  353) = (  -0.0512821  -0.0296077  -0.0989986), wk =   0.0042553
        k(  354) = (  -0.0641026  -0.0370096  -0.0989986), wk =   0.0042553
        k(  355) = (  -0.0769231  -0.0444116  -0.0989986), wk =   0.0042553
        k(  356) = (  -0.0897436  -0.0518135  -0.0989986), wk =   0.0042553
        k(  357) = (  -0.1025641  -0.0592154  -0.0989986), wk =   0.0042553
        k(  358) = (  -0.1153846  -0.0666173  -0.0989986), wk =   0.0042553
        k(  359) = (  -0.1282051  -0.0740193  -0.0989986), wk =   0.0042553
        k(  360) = (  -0.1410256  -0.0814212  -0.0989986), wk =   0.0042553
        k(  361) = (  -0.1538462  -0.0888231  -0.0989986), wk =   0.0042553
        k(  362) = (  -0.1666667  -0.0962250  -0.0989986), wk =   0.0042553
        k(  363) = (  -0.1794872  -0.1036270  -0.0989986), wk =   0.0042553
        k(  364) = (  -0.1923077  -0.1110289  -0.0989986), wk =   0.0042553
        k(  365) = (  -0.2051282  -0.1184308  -0.0989986), wk =   0.0042553
        k(  366) = (  -0.2179487  -0.1258328  -0.0989986), wk =   0.0042553
        k(  367) = (  -0.2307692  -0.1332347  -0.0989986), wk =   0.0042553
        k(  368) = (  -0.2435897  -0.1406366  -0.0989986), wk =   0.0042553
        k(  369) = (  -0.2564103  -0.1480385  -0.0989986), wk =   0.0042553
        k(  370) = (  -0.2692308  -0.1554405  -0.0989986), wk =   0.0042553
        k(  371) = (  -0.2820513  -0.1628424  -0.0989986), wk =   0.0042553
        k(  372) = (  -0.2948718  -0.1702443  -0.0989986), wk =   0.0042553
        k(  373) = (  -0.3076923  -0.1776462  -0.0989986), wk =   0.0042553
        k(  374) = (  -0.3205128  -0.1850482  -0.0989986), wk =   0.0042553
        k(  375) = (  -0.3333333  -0.1924501  -0.0989986), wk =   0.0042553
        k(  376) = (  -0.3461538  -0.1998520  -0.0989986), wk =   0.0042553
        k(  377) = (  -0.3589744  -0.2072539  -0.0989986), wk =   0.0042553
        k(  378) = (  -0.3717949  -0.2146559  -0.0989986), wk =   0.0042553
        k(  379) = (  -0.3846154  -0.2220578  -0.0989986), wk =   0.0042553
        k(  380) = (  -0.3974359  -0.2294597  -0.0989986), wk =   0.0042553
        k(  381) = (  -0.4102564  -0.2368616  -0.0989986), wk =   0.0042553
        k(  382) = (  -0.4230769  -0.2442636  -0.0989986), wk =   0.0042553
        k(  383) = (  -0.4358974  -0.2516655  -0.0989986), wk =   0.0042553
        k(  384) = (  -0.4487179  -0.2590674  -0.0989986), wk =   0.0042553
        k(  385) = (  -0.4615385  -0.2664694  -0.0989986), wk =   0.0042553
        k(  386) = (  -0.4743590  -0.2738713  -0.0989986), wk =   0.0042553
        k(  387) = (  -0.4871795  -0.2812732  -0.0989986), wk =   0.0042553
        k(  388) = (  -0.5000000  -0.2886751  -0.0989986), wk =   0.0042553
        k(  389) = (  -0.4924242  -0.3017967  -0.0989986), wk =   0.0042553
        k(  390) = (  -0.4848485  -0.3149183  -0.0989986), wk =   0.0042553
        k(  391) = (  -0.4772727  -0.3280399  -0.0989986), wk =   0.0042553
        k(  392) = (  -0.4696970  -0.3411615  -0.0989986), wk =   0.0042553
        k(  393) = (  -0.4621212  -0.3542831  -0.0989986), wk =   0.0042553
        k(  394) = (  -0.4545455  -0.3674047  -0.0989986), wk =   0.0042553
        k(  395) = (  -0.4469697  -0.3805263  -0.0989986), wk =   0.0042553
        k(  396) = (  -0.4393939  -0.3936479  -0.0989986), wk =   0.0042553
        k(  397) = (  -0.4318182  -0.4067695  -0.0989986), wk =   0.0042553
        k(  398) = (  -0.4242424  -0.4198911  -0.0989986), wk =   0.0042553
        k(  399) = (  -0.4166667  -0.4330127  -0.0989986), wk =   0.0042553
        k(  400) = (  -0.4090909  -0.4461343  -0.0989986), wk =   0.0042553
        k(  401) = (  -0.4015152  -0.4592559  -0.0989986), wk =   0.0042553
        k(  402) = (  -0.3939394  -0.4723775  -0.0989986), wk =   0.0042553
        k(  403) = (  -0.3863636  -0.4854991  -0.0989986), wk =   0.0042553
        k(  404) = (  -0.3787879  -0.4986207  -0.0989986), wk =   0.0042553
        k(  405) = (  -0.3712121  -0.5117423  -0.0989986), wk =   0.0042553
        k(  406) = (  -0.3636364  -0.5248639  -0.0989986), wk =   0.0042553
        k(  407) = (  -0.3560606  -0.5379855  -0.0989986), wk =   0.0042553
        k(  408) = (  -0.3484848  -0.5511071  -0.0989986), wk =   0.0042553
        k(  409) = (  -0.3409091  -0.5642287  -0.0989986), wk =   0.0042553
        k(  410) = (  -0.3333333  -0.5773503  -0.0989986), wk =   0.0042553
        k(  411) = (  -0.3260870  -0.5647992  -0.0989986), wk =   0.0042553
        k(  412) = (  -0.3188406  -0.5522481  -0.0989986), wk =   0.0042553
        k(  413) = (  -0.3115942  -0.5396970  -0.0989986), wk =   0.0042553
        k(  414) = (  -0.3043478  -0.5271459  -0.0989986), wk =   0.0042553
        k(  415) = (  -0.2971014  -0.5145948  -0.0989986), wk =   0.0042553
        k(  416) = (  -0.2898551  -0.5020437  -0.0989986), wk =   0.0042553
        k(  417) = (  -0.2826087  -0.4894926  -0.0989986), wk =   0.0042553
        k(  418) = (  -0.2753623  -0.4769415  -0.0989986), wk =   0.0042553
        k(  419) = (  -0.2681159  -0.4643904  -0.0989986), wk =   0.0042553
        k(  420) = (  -0.2608696  -0.4518393  -0.0989986), wk =   0.0042553
        k(  421) = (  -0.2536232  -0.4392882  -0.0989986), wk =   0.0042553
        k(  422) = (  -0.2463768  -0.4267372  -0.0989986), wk =   0.0042553
        k(  423) = (  -0.2391304  -0.4141861  -0.0989986), wk =   0.0042553
        k(  424) = (  -0.2318841  -0.4016350  -0.0989986), wk =   0.0042553
        k(  425) = (  -0.2246377  -0.3890839  -0.0989986), wk =   0.0042553
        k(  426) = (  -0.2173913  -0.3765328  -0.0989986), wk =   0.0042553
        k(  427) = (  -0.2101449  -0.3639817  -0.0989986), wk =   0.0042553
        k(  428) = (  -0.2028986  -0.3514306  -0.0989986), wk =   0.0042553
        k(  429) = (  -0.1956522  -0.3388795  -0.0989986), wk =   0.0042553
        k(  430) = (  -0.1884058  -0.3263284  -0.0989986), wk =   0.0042553
        k(  431) = (  -0.1811594  -0.3137773  -0.0989986), wk =   0.0042553
        k(  432) = (  -0.1739130  -0.3012262  -0.0989986), wk =   0.0042553
        k(  433) = (  -0.1666667  -0.2886751  -0.0989986), wk =   0.0042553
        k(  434) = (  -0.1594203  -0.2761240  -0.0989986), wk =   0.0042553
        k(  435) = (  -0.1521739  -0.2635729  -0.0989986), wk =   0.0042553
        k(  436) = (  -0.1449275  -0.2510219  -0.0989986), wk =   0.0042553
        k(  437) = (  -0.1376812  -0.2384708  -0.0989986), wk =   0.0042553
        k(  438) = (  -0.1304348  -0.2259197  -0.0989986), wk =   0.0042553
        k(  439) = (  -0.1231884  -0.2133686  -0.0989986), wk =   0.0042553
        k(  440) = (  -0.1159420  -0.2008175  -0.0989986), wk =   0.0042553
        k(  441) = (  -0.1086957  -0.1882664  -0.0989986), wk =   0.0042553
        k(  442) = (  -0.1014493  -0.1757153  -0.0989986), wk =   0.0042553
        k(  443) = (  -0.0942029  -0.1631642  -0.0989986), wk =   0.0042553
        k(  444) = (  -0.0869565  -0.1506131  -0.0989986), wk =   0.0042553
        k(  445) = (  -0.0797101  -0.1380620  -0.0989986), wk =   0.0042553
        k(  446) = (  -0.0724638  -0.1255109  -0.0989986), wk =   0.0042553
        k(  447) = (  -0.0652174  -0.1129598  -0.0989986), wk =   0.0042553
        k(  448) = (  -0.0579710  -0.1004087  -0.0989986), wk =   0.0042553
        k(  449) = (  -0.0507246  -0.0878576  -0.0989986), wk =   0.0042553
        k(  450) = (  -0.0434783  -0.0753066  -0.0989986), wk =   0.0042553
        k(  451) = (  -0.0362319  -0.0627555  -0.0989986), wk =   0.0042553
        k(  452) = (  -0.0289855  -0.0502044  -0.0989986), wk =   0.0042553
        k(  453) = (  -0.0217391  -0.0376533  -0.0989986), wk =   0.0042553
        k(  454) = (  -0.0144928  -0.0251022  -0.0989986), wk =   0.0042553
        k(  455) = (  -0.0072464  -0.0125511  -0.0989986), wk =   0.0042553
        k(  456) = (   0.0000000   0.0000000  -0.0989986), wk =   0.0042553
        k(  457) = (  -0.5000000  -0.2886751  -0.0989986), wk =   0.0042553
        k(  458) = (  -0.5000000  -0.2886751  -0.0824988), wk =   0.0042553
        k(  459) = (  -0.5000000  -0.2886751  -0.0659991), wk =   0.0042553
        k(  460) = (  -0.5000000  -0.2886751  -0.0494993), wk =   0.0042553
        k(  461) = (  -0.5000000  -0.2886751  -0.0329995), wk =   0.0042553
        k(  462) = (  -0.5000000  -0.2886751  -0.0164998), wk =   0.0042553
        k(  463) = (  -0.5000000  -0.2886751   0.0000000), wk =   0.0042553
        k(  464) = (  -0.3333333  -0.5773503  -0.0989986), wk =   0.0042553
        k(  465) = (  -0.3333333  -0.5773503  -0.0824988), wk =   0.0042553
        k(  466) = (  -0.3333333  -0.5773503  -0.0659991), wk =   0.0042553
        k(  467) = (  -0.3333333  -0.5773503  -0.0494993), wk =   0.0042553
        k(  468) = (  -0.3333333  -0.5773503  -0.0329995), wk =   0.0042553
        k(  469) = (  -0.3333333  -0.5773503  -0.0164998), wk =   0.0042553
        k(  470) = (  -0.3333333  -0.5773503   0.0000000), wk =   0.0042553

                       cryst. coord.
        k(    1) = (   0.0000000   0.0000000   0.0000000), wk =   0.0042553
        k(    2) = (   0.0128205  -0.0000000   0.0000000), wk =   0.0042553
        k(    3) = (   0.0256410  -0.0000000   0.0000000), wk =   0.0042553
        k(    4) = (   0.0384615   0.0000000   0.0000000), wk =   0.0042553
        k(    5) = (   0.0512821   0.0000000   0.0000000), wk =   0.0042553
        k(    6) = (   0.0641026   0.0000000   0.0000000), wk =   0.0042553
        k(    7) = (   0.0769231   0.0000000   0.0000000), wk =   0.0042553
        k(    8) = (   0.0897436   0.0000000   0.0000000), wk =   0.0042553
        k(    9) = (   0.1025641   0.0000000   0.0000000), wk =   0.0042553
        k(   10) = (   0.1153846   0.0000000   0.0000000), wk =   0.0042553
        k(   11) = (   0.1282051   0.0000000   0.0000000), wk =   0.0042553
        k(   12) = (   0.1410256   0.0000000   0.0000000), wk =   0.0042553
        k(   13) = (   0.1538462   0.0000000   0.0000000), wk =   0.0042553
        k(   14) = (   0.1666667   0.0000000   0.0000000), wk =   0.0042553
        k(   15) = (   0.1794872   0.0000000   0.0000000), wk =   0.0042553
        k(   16) = (   0.1923077  -0.0000000   0.0000000), wk =   0.0042553
        k(   17) = (   0.2051282  -0.0000000   0.0000000), wk =   0.0042553
        k(   18) = (   0.2179487  -0.0000000   0.0000000), wk =   0.0042553
        k(   19) = (   0.2307692   0.0000000   0.0000000), wk =   0.0042553
        k(   20) = (   0.2435897   0.0000000   0.0000000), wk =   0.0042553
        k(   21) = (   0.2564103   0.0000000   0.0000000), wk =   0.0042553
        k(   22) = (   0.2692308   0.0000000   0.0000000), wk =   0.0042553
        k(   23) = (   0.2820513   0.0000000   0.0000000), wk =   0.0042553
        k(   24) = (   0.2948718   0.0000000   0.0000000), wk =   0.0042553
        k(   25) = (   0.3076923  -0.0000000   0.0000000), wk =   0.0042553
        k(   26) = (   0.3205128   0.0000000   0.0000000), wk =   0.0042553
        k(   27) = (   0.3333333   0.0000000   0.0000000), wk =   0.0042553
        k(   28) = (   0.3461538   0.0000000   0.0000000), wk =   0.0042553
        k(   29) = (   0.3589744   0.0000000   0.0000000), wk =   0.0042553
        k(   30) = (   0.3717949   0.0000000   0.0000000), wk =   0.0042553
        k(   31) = (   0.3846154  -0.0000000   0.0000000), wk =   0.0042553
        k(   32) = (   0.3974359   0.0000000   0.0000000), wk =   0.0042553
        k(   33) = (   0.4102564  -0.0000000   0.0000000), wk =   0.0042553
        k(   34) = (   0.4230769  -0.0000000   0.0000000), wk =   0.0042553
        k(   35) = (   0.4358974  -0.0000000   0.0000000), wk =   0.0042553
        k(   36) = (   0.4487179   0.0000000   0.0000000), wk =   0.0042553
        k(   37) = (   0.4615385   0.0000000   0.0000000), wk =   0.0042553
        k(   38) = (   0.4743590   0.0000000   0.0000000), wk =   0.0042553
        k(   39) = (   0.4871795   0.0000000   0.0000000), wk =   0.0042553
        k(   40) = (   0.5000000   0.0000000   0.0000000), wk =   0.0042553
        k(   41) = (   0.4924242   0.0151515   0.0000000), wk =   0.0042553
        k(   42) = (   0.4848485   0.0303030   0.0000000), wk =   0.0042553
        k(   43) = (   0.4772727   0.0454545   0.0000000), wk =   0.0042553
        k(   44) = (   0.4696970   0.0606061   0.0000000), wk =   0.0042553
        k(   45) = (   0.4621212   0.0757576   0.0000000), wk =   0.0042553
        k(   46) = (   0.4545455   0.0909091   0.0000000), wk =   0.0042553
        k(   47) = (   0.4469697   0.1060606   0.0000000), wk =   0.0042553
        k(   48) = (   0.4393939   0.1212121   0.0000000), wk =   0.0042553
        k(   49) = (   0.4318182   0.1363636   0.0000000), wk =   0.0042553
        k(   50) = (   0.4242424   0.1515152   0.0000000), wk =   0.0042553
        k(   51) = (   0.4166667   0.1666667   0.0000000), wk =   0.0042553
        k(   52) = (   0.4090909   0.1818182   0.0000000), wk =   0.0042553
        k(   53) = (   0.4015152   0.1969697   0.0000000), wk =   0.0042553
        k(   54) = (   0.3939394   0.2121212   0.0000000), wk =   0.0042553
        k(   55) = (   0.3863636   0.2272727   0.0000000), wk =   0.0042553
        k(   56) = (   0.3787879   0.2424242   0.0000000), wk =   0.0042553
        k(   57) = (   0.3712121   0.2575758   0.0000000), wk =   0.0042553
        k(   58) = (   0.3636364   0.2727273   0.0000000), wk =   0.0042553
        k(   59) = (   0.3560606   0.2878788   0.0000000), wk =   0.0042553
        k(   60) = (   0.3484848   0.3030303   0.0000000), wk =   0.0042553
        k(   61) = (   0.3409091   0.3181818   0.0000000), wk =   0.0042553
        k(   62) = (   0.3333333   0.3333333   0.0000000), wk =   0.0042553
        k(   63) = (   0.3260870   0.3260870   0.0000000), wk =   0.0042553
        k(   64) = (   0.3188406   0.3188406   0.0000000), wk =   0.0042553
        k(   65) = (   0.3115942   0.3115942   0.0000000), wk =   0.0042553
        k(   66) = (   0.3043478   0.3043478   0.0000000), wk =   0.0042553
        k(   67) = (   0.2971014   0.2971014   0.0000000), wk =   0.0042553
        k(   68) = (   0.2898551   0.2898551   0.0000000), wk =   0.0042553
        k(   69) = (   0.2826087   0.2826087   0.0000000), wk =   0.0042553
        k(   70) = (   0.2753623   0.2753623   0.0000000), wk =   0.0042553
        k(   71) = (   0.2681159   0.2681159   0.0000000), wk =   0.0042553
        k(   72) = (   0.2608696   0.2608696   0.0000000), wk =   0.0042553
        k(   73) = (   0.2536232   0.2536232   0.0000000), wk =   0.0042553
        k(   74) = (   0.2463768   0.2463768   0.0000000), wk =   0.0042553
        k(   75) = (   0.2391304   0.2391304   0.0000000), wk =   0.0042553
        k(   76) = (   0.2318841   0.2318841   0.0000000), wk =   0.0042553
        k(   77) = (   0.2246377   0.2246377   0.0000000), wk =   0.0042553
        k(   78) = (   0.2173913   0.2173913   0.0000000), wk =   0.0042553
        k(   79) = (   0.2101449   0.2101449   0.0000000), wk =   0.0042553
        k(   80) = (   0.2028986   0.2028986   0.0000000), wk =   0.0042553
        k(   81) = (   0.1956522   0.1956522   0.0000000), wk =   0.0042553
        k(   82) = (   0.1884058   0.1884058   0.0000000), wk =   0.0042553
        k(   83) = (   0.1811594   0.1811594   0.0000000), wk =   0.0042553
        k(   84) = (   0.1739130   0.1739130   0.0000000), wk =   0.0042553
        k(   85) = (   0.1666667   0.1666667   0.0000000), wk =   0.0042553
        k(   86) = (   0.1594203   0.1594203   0.0000000), wk =   0.0042553
        k(   87) = (   0.1521739   0.1521739   0.0000000), wk =   0.0042553
        k(   88) = (   0.1449275   0.1449275   0.0000000), wk =   0.0042553
        k(   89) = (   0.1376812   0.1376812   0.0000000), wk =   0.0042553
        k(   90) = (   0.1304348   0.1304348   0.0000000), wk =   0.0042553
        k(   91) = (   0.1231884   0.1231884   0.0000000), wk =   0.0042553
        k(   92) = (   0.1159420   0.1159420   0.0000000), wk =   0.0042553
        k(   93) = (   0.1086957   0.1086957   0.0000000), wk =   0.0042553
        k(   94) = (   0.1014493   0.1014493   0.0000000), wk =   0.0042553
        k(   95) = (   0.0942029   0.0942029   0.0000000), wk =   0.0042553
        k(   96) = (   0.0869565   0.0869565   0.0000000), wk =   0.0042553
        k(   97) = (   0.0797101   0.0797101   0.0000000), wk =   0.0042553
        k(   98) = (   0.0724638   0.0724638   0.0000000), wk =   0.0042553
        k(   99) = (   0.0652174   0.0652174   0.0000000), wk =   0.0042553
        k(  100) = (   0.0579710   0.0579710   0.0000000), wk =   0.0042553
        k(  101) = (   0.0507246   0.0507246   0.0000000), wk =   0.0042553
        k(  102) = (   0.0434783   0.0434783   0.0000000), wk =   0.0042553
        k(  103) = (   0.0362319   0.0362319   0.0000000), wk =   0.0042553
        k(  104) = (   0.0289855   0.0289855   0.0000000), wk =   0.0042553
        k(  105) = (   0.0217391   0.0217391   0.0000000), wk =   0.0042553
        k(  106) = (   0.0144928   0.0144928   0.0000000), wk =   0.0042553
        k(  107) = (   0.0072464   0.0072464   0.0000000), wk =   0.0042553
        k(  108) = (   0.0000000   0.0000000   0.0000000), wk =   0.0042553
        k(  109) = (   0.0000000   0.0000000   0.0833333), wk =   0.0042553
        k(  110) = (   0.0000000   0.0000000   0.1666667), wk =   0.0042553
        k(  111) = (   0.0000000   0.0000000   0.2500000), wk =   0.0042553
        k(  112) = (   0.0000000   0.0000000   0.3333333), wk =   0.0042553
        k(  113) = (   0.0000000   0.0000000   0.4166667), wk =   0.0042553
        k(  114) = (   0.0000000   0.0000000   0.5000000), wk =   0.0042553
        k(  115) = (   0.0128205  -0.0000000   0.5000000), wk =   0.0042553
        k(  116) = (   0.0256410  -0.0000000   0.5000000), wk =   0.0042553
        k(  117) = (   0.0384615   0.0000000   0.5000000), wk =   0.0042553
        k(  118) = (   0.0512821   0.0000000   0.5000000), wk =   0.0042553
        k(  119) = (   0.0641026   0.0000000   0.5000000), wk =   0.0042553
        k(  120) = (   0.0769231   0.0000000   0.5000000), wk =   0.0042553
        k(  121) = (   0.0897436   0.0000000   0.5000000), wk =   0.0042553
        k(  122) = (   0.1025641   0.0000000   0.5000000), wk =   0.0042553
        k(  123) = (   0.1153846   0.0000000   0.5000000), wk =   0.0042553
        k(  124) = (   0.1282051   0.0000000   0.5000000), wk =   0.0042553
        k(  125) = (   0.1410256   0.0000000   0.5000000), wk =   0.0042553
        k(  126) = (   0.1538462   0.0000000   0.5000000), wk =   0.0042553
        k(  127) = (   0.1666667   0.0000000   0.5000000), wk =   0.0042553
        k(  128) = (   0.1794872   0.0000000   0.5000000), wk =   0.0042553
        k(  129) = (   0.1923077  -0.0000000   0.5000000), wk =   0.0042553
        k(  130) = (   0.2051282  -0.0000000   0.5000000), wk =   0.0042553
        k(  131) = (   0.2179487  -0.0000000   0.5000000), wk =   0.0042553
        k(  132) = (   0.2307692   0.0000000   0.5000000), wk =   0.0042553
        k(  133) = (   0.2435897   0.0000000   0.5000000), wk =   0.0042553
        k(  134) = (   0.2564103   0.0000000   0.5000000), wk =   0.0042553
        k(  135) = (   0.2692308   0.0000000   0.5000000), wk =   0.0042553
        k(  136) = (   0.2820513   0.0000000   0.5000000), wk =   0.0042553
        k(  137) = (   0.2948718   0.0000000   0.5000000), wk =   0.0042553
        k(  138) = (   0.3076923  -0.0000000   0.5000000), wk =   0.0042553
        k(  139) = (   0.3205128   0.0000000   0.5000000), wk =   0.0042553
        k(  140) = (   0.3333333   0.0000000   0.5000000), wk =   0.0042553
        k(  141) = (   0.3461538   0.0000000   0.5000000), wk =   0.0042553
        k(  142) = (   0.3589744   0.0000000   0.5000000), wk =   0.0042553
        k(  143) = (   0.3717949   0.0000000   0.5000000), wk =   0.0042553
        k(  144) = (   0.3846154  -0.0000000   0.5000000), wk =   0.0042553
        k(  145) = (   0.3974359   0.0000000   0.5000000), wk =   0.0042553
        k(  146) = (   0.4102564  -0.0000000   0.5000000), wk =   0.0042553
        k(  147) = (   0.4230769  -0.0000000   0.5000000), wk =   0.0042553
        k(  148) = (   0.4358974  -0.0000000   0.5000000), wk =   0.0042553
        k(  149) = (   0.4487179   0.0000000   0.5000000), wk =   0.0042553
        k(  150) = (   0.4615385   0.0000000   0.5000000), wk =   0.0042553
        k(  151) = (   0.4743590   0.0000000   0.5000000), wk =   0.0042553
        k(  152) = (   0.4871795   0.0000000   0.5000000), wk =   0.0042553
        k(  153) = (   0.5000000   0.0000000   0.5000000), wk =   0.0042553
        k(  154) = (   0.4924242   0.0151515   0.5000000), wk =   0.0042553
        k(  155) = (   0.4848485   0.0303030   0.5000000), wk =   0.0042553
        k(  156) = (   0.4772727   0.0454545   0.5000000), wk =   0.0042553
        k(  157) = (   0.4696970   0.0606061   0.5000000), wk =   0.0042553
        k(  158) = (   0.4621212   0.0757576   0.5000000), wk =   0.0042553
        k(  159) = (   0.4545455   0.0909091   0.5000000), wk =   0.0042553
        k(  160) = (   0.4469697   0.1060606   0.5000000), wk =   0.0042553
        k(  161) = (   0.4393939   0.1212121   0.5000000), wk =   0.0042553
        k(  162) = (   0.4318182   0.1363636   0.5000000), wk =   0.0042553
        k(  163) = (   0.4242424   0.1515152   0.5000000), wk =   0.0042553
        k(  164) = (   0.4166667   0.1666667   0.5000000), wk =   0.0042553
        k(  165) = (   0.4090909   0.1818182   0.5000000), wk =   0.0042553
        k(  166) = (   0.4015152   0.1969697   0.5000000), wk =   0.0042553
        k(  167) = (   0.3939394   0.2121212   0.5000000), wk =   0.0042553
        k(  168) = (   0.3863636   0.2272727   0.5000000), wk =   0.0042553
        k(  169) = (   0.3787879   0.2424242   0.5000000), wk =   0.0042553
        k(  170) = (   0.3712121   0.2575758   0.5000000), wk =   0.0042553
        k(  171) = (   0.3636364   0.2727273   0.5000000), wk =   0.0042553
        k(  172) = (   0.3560606   0.2878788   0.5000000), wk =   0.0042553
        k(  173) = (   0.3484848   0.3030303   0.5000000), wk =   0.0042553
        k(  174) = (   0.3409091   0.3181818   0.5000000), wk =   0.0042553
        k(  175) = (   0.3333333   0.3333333   0.5000000), wk =   0.0042553
        k(  176) = (   0.3260870   0.3260870   0.5000000), wk =   0.0042553
        k(  177) = (   0.3188406   0.3188406   0.5000000), wk =   0.0042553
        k(  178) = (   0.3115942   0.3115942   0.5000000), wk =   0.0042553
        k(  179) = (   0.3043478   0.3043478   0.5000000), wk =   0.0042553
        k(  180) = (   0.2971014   0.2971014   0.5000000), wk =   0.0042553
        k(  181) = (   0.2898551   0.2898551   0.5000000), wk =   0.0042553
        k(  182) = (   0.2826087   0.2826087   0.5000000), wk =   0.0042553
        k(  183) = (   0.2753623   0.2753623   0.5000000), wk =   0.0042553
        k(  184) = (   0.2681159   0.2681159   0.5000000), wk =   0.0042553
        k(  185) = (   0.2608696   0.2608696   0.5000000), wk =   0.0042553
        k(  186) = (   0.2536232   0.2536232   0.5000000), wk =   0.0042553
        k(  187) = (   0.2463768   0.2463768   0.5000000), wk =   0.0042553
        k(  188) = (   0.2391304   0.2391304   0.5000000), wk =   0.0042553
        k(  189) = (   0.2318841   0.2318841   0.5000000), wk =   0.0042553
        k(  190) = (   0.2246377   0.2246377   0.5000000), wk =   0.0042553
        k(  191) = (   0.2173913   0.2173913   0.5000000), wk =   0.0042553
        k(  192) = (   0.2101449   0.2101449   0.5000000), wk =   0.0042553
        k(  193) = (   0.2028986   0.2028986   0.5000000), wk =   0.0042553
        k(  194) = (   0.1956522   0.1956522   0.5000000), wk =   0.0042553
        k(  195) = (   0.1884058   0.1884058   0.5000000), wk =   0.0042553
        k(  196) = (   0.1811594   0.1811594   0.5000000), wk =   0.0042553
        k(  197) = (   0.1739130   0.1739130   0.5000000), wk =   0.0042553
        k(  198) = (   0.1666667   0.1666667   0.5000000), wk =   0.0042553
        k(  199) = (   0.1594203   0.1594203   0.5000000), wk =   0.0042553
        k(  200) = (   0.1521739   0.1521739   0.5000000), wk =   0.0042553
        k(  201) = (   0.1449275   0.1449275   0.5000000), wk =   0.0042553
        k(  202) = (   0.1376812   0.1376812   0.5000000), wk =   0.0042553
        k(  203) = (   0.1304348   0.1304348   0.5000000), wk =   0.0042553
        k(  204) = (   0.1231884   0.1231884   0.5000000), wk =   0.0042553
        k(  205) = (   0.1159420   0.1159420   0.5000000), wk =   0.0042553
        k(  206) = (   0.1086957   0.1086957   0.5000000), wk =   0.0042553
        k(  207) = (   0.1014493   0.1014493   0.5000000), wk =   0.0042553
        k(  208) = (   0.0942029   0.0942029   0.5000000), wk =   0.0042553
        k(  209) = (   0.0869565   0.0869565   0.5000000), wk =   0.0042553
        k(  210) = (   0.0797101   0.0797101   0.5000000), wk =   0.0042553
        k(  211) = (   0.0724638   0.0724638   0.5000000), wk =   0.0042553
        k(  212) = (   0.0652174   0.0652174   0.5000000), wk =   0.0042553
        k(  213) = (   0.0579710   0.0579710   0.5000000), wk =   0.0042553
        k(  214) = (   0.0507246   0.0507246   0.5000000), wk =   0.0042553
        k(  215) = (   0.0434783   0.0434783   0.5000000), wk =   0.0042553
        k(  216) = (   0.0362319   0.0362319   0.5000000), wk =   0.0042553
        k(  217) = (   0.0289855   0.0289855   0.5000000), wk =   0.0042553
        k(  218) = (   0.0217391   0.0217391   0.5000000), wk =   0.0042553
        k(  219) = (   0.0144928   0.0144928   0.5000000), wk =   0.0042553
        k(  220) = (   0.0072464   0.0072464   0.5000000), wk =   0.0042553
        k(  221) = (   0.0000000   0.0000000   0.5000000), wk =   0.0042553
        k(  222) = (   0.5000000   0.0000000   0.5000000), wk =   0.0042553
        k(  223) = (   0.5000000   0.0000000   0.4166667), wk =   0.0042553
        k(  224) = (   0.5000000   0.0000000   0.3333333), wk =   0.0042553
        k(  225) = (   0.5000000   0.0000000   0.2500000), wk =   0.0042553
        k(  226) = (   0.5000000   0.0000000   0.1666667), wk =   0.0042553
        k(  227) = (   0.5000000   0.0000000   0.0833333), wk =   0.0042553
        k(  228) = (   0.5000000   0.0000000   0.0000000), wk =   0.0042553
        k(  229) = (   0.3333333   0.3333333   0.5000000), wk =   0.0042553
        k(  230) = (   0.3333333   0.3333333   0.4166667), wk =   0.0042553
        k(  231) = (   0.3333333   0.3333333   0.3333333), wk =   0.0042553
        k(  232) = (   0.3333333   0.3333333   0.2500000), wk =   0.0042553
        k(  233) = (   0.3333333   0.3333333   0.1666667), wk =   0.0042553
        k(  234) = (   0.3333333   0.3333333   0.0833333), wk =   0.0042553
        k(  235) = (   0.3333333   0.3333333   0.0000000), wk =   0.0042553
        k(  236) = (   0.0000000   0.0000000   0.0000000), wk =   0.0042553
        k(  237) = (  -0.0128205   0.0000000   0.0000000), wk =   0.0042553
        k(  238) = (  -0.0256410   0.0000000   0.0000000), wk =   0.0042553
        k(  239) = (  -0.0384615   0.0000000   0.0000000), wk =   0.0042553
        k(  240) = (  -0.0512821   0.0000000   0.0000000), wk =   0.0042553
        k(  241) = (  -0.0641026   0.0000000   0.0000000), wk =   0.0042553
        k(  242) = (  -0.0769231   0.0000000   0.0000000), wk =   0.0042553
        k(  243) = (  -0.0897436  -0.0000000   0.0000000), wk =   0.0042553
        k(  244) = (  -0.1025641   0.0000000   0.0000000), wk =   0.0042553
        k(  245) = (  -0.1153846   0.0000000   0.0000000), wk =   0.0042553
        k(  246) = (  -0.1282051   0.0000000   0.0000000), wk =   0.0042553
        k(  247) = (  -0.1410256   0.0000000   0.0000000), wk =   0.0042553
        k(  248) = (  -0.1538462   0.0000000   0.0000000), wk =   0.0042553
        k(  249) = (  -0.1666667   0.0000000   0.0000000), wk =   0.0042553
        k(  250) = (  -0.1794872   0.0000000   0.0000000), wk =   0.0042553
        k(  251) = (  -0.1923077   0.0000000   0.0000000), wk =   0.0042553
        k(  252) = (  -0.2051282   0.0000000   0.0000000), wk =   0.0042553
        k(  253) = (  -0.2179487   0.0000000   0.0000000), wk =   0.0042553
        k(  254) = (  -0.2307692   0.0000000   0.0000000), wk =   0.0042553
        k(  255) = (  -0.2435897   0.0000000   0.0000000), wk =   0.0042553
        k(  256) = (  -0.2564103   0.0000000   0.0000000), wk =   0.0042553
        k(  257) = (  -0.2692308   0.0000000   0.0000000), wk =   0.0042553
        k(  258) = (  -0.2820513   0.0000000   0.0000000), wk =   0.0042553
        k(  259) = (  -0.2948718   0.0000000   0.0000000), wk =   0.0042553
        k(  260) = (  -0.3076923   0.0000000   0.0000000), wk =   0.0042553
        k(  261) = (  -0.3205128  -0.0000000   0.0000000), wk =   0.0042553
        k(  262) = (  -0.3333333   0.0000000   0.0000000), wk =   0.0042553
        k(  263) = (  -0.3461538  -0.0000000   0.0000000), wk =   0.0042553
        k(  264) = (  -0.3589744   0.0000000   0.0000000), wk =   0.0042553
        k(  265) = (  -0.3717949  -0.0000000   0.0000000), wk =   0.0042553
        k(  266) = (  -0.3846154   0.0000000   0.0000000), wk =   0.0042553
        k(  267) = (  -0.3974359   0.0000000   0.0000000), wk =   0.0042553
        k(  268) = (  -0.4102564   0.0000000   0.0000000), wk =   0.0042553
        k(  269) = (  -0.4230769   0.0000000   0.0000000), wk =   0.0042553
        k(  270) = (  -0.4358974   0.0000000   0.0000000), wk =   0.0042553
        k(  271) = (  -0.4487179  -0.0000000   0.0000000), wk =   0.0042553
        k(  272) = (  -0.4615385   0.0000000   0.0000000), wk =   0.0042553
        k(  273) = (  -0.4743590   0.0000000   0.0000000), wk =   0.0042553
        k(  274) = (  -0.4871795   0.0000000   0.0000000), wk =   0.0042553
        k(  275) = (  -0.5000000   0.0000000   0.0000000), wk =   0.0042553
        k(  276) = (  -0.4924242  -0.0151515   0.0000000), wk =   0.0042553
        k(  277) = (  -0.4848485  -0.0303030   0.0000000), wk =   0.0042553
        k(  278) = (  -0.4772727  -0.0454545   0.0000000), wk =   0.0042553
        k(  279) = (  -0.4696970  -0.0606061   0.0000000), wk =   0.0042553
        k(  280) = (  -0.4621212  -0.0757576   0.0000000), wk =   0.0042553
        k(  281) = (  -0.4545455  -0.0909091   0.0000000), wk =   0.0042553
        k(  282) = (  -0.4469697  -0.1060606   0.0000000), wk =   0.0042553
        k(  283) = (  -0.4393939  -0.1212121   0.0000000), wk =   0.0042553
        k(  284) = (  -0.4318182  -0.1363636   0.0000000), wk =   0.0042553
        k(  285) = (  -0.4242424  -0.1515152   0.0000000), wk =   0.0042553
        k(  286) = (  -0.4166667  -0.1666667   0.0000000), wk =   0.0042553
        k(  287) = (  -0.4090909  -0.1818182   0.0000000), wk =   0.0042553
        k(  288) = (  -0.4015152  -0.1969697   0.0000000), wk =   0.0042553
        k(  289) = (  -0.3939394  -0.2121212   0.0000000), wk =   0.0042553
        k(  290) = (  -0.3863636  -0.2272727   0.0000000), wk =   0.0042553
        k(  291) = (  -0.3787879  -0.2424242   0.0000000), wk =   0.0042553
        k(  292) = (  -0.3712121  -0.2575758   0.0000000), wk =   0.0042553
        k(  293) = (  -0.3636364  -0.2727273   0.0000000), wk =   0.0042553
        k(  294) = (  -0.3560606  -0.2878788   0.0000000), wk =   0.0042553
        k(  295) = (  -0.3484848  -0.3030303   0.0000000), wk =   0.0042553
        k(  296) = (  -0.3409091  -0.3181818   0.0000000), wk =   0.0042553
        k(  297) = (  -0.3333333  -0.3333333   0.0000000), wk =   0.0042553
        k(  298) = (  -0.3260870  -0.3260870   0.0000000), wk =   0.0042553
        k(  299) = (  -0.3188406  -0.3188406   0.0000000), wk =   0.0042553
        k(  300) = (  -0.3115942  -0.3115942   0.0000000), wk =   0.0042553
        k(  301) = (  -0.3043478  -0.3043478   0.0000000), wk =   0.0042553
        k(  302) = (  -0.2971014  -0.2971014   0.0000000), wk =   0.0042553
        k(  303) = (  -0.2898551  -0.2898551   0.0000000), wk =   0.0042553
        k(  304) = (  -0.2826087  -0.2826087   0.0000000), wk =   0.0042553
        k(  305) = (  -0.2753623  -0.2753623   0.0000000), wk =   0.0042553
        k(  306) = (  -0.2681159  -0.2681159   0.0000000), wk =   0.0042553
        k(  307) = (  -0.2608696  -0.2608696   0.0000000), wk =   0.0042553
        k(  308) = (  -0.2536232  -0.2536232   0.0000000), wk =   0.0042553
        k(  309) = (  -0.2463768  -0.2463768   0.0000000), wk =   0.0042553
        k(  310) = (  -0.2391304  -0.2391304   0.0000000), wk =   0.0042553
        k(  311) = (  -0.2318841  -0.2318841   0.0000000), wk =   0.0042553
        k(  312) = (  -0.2246377  -0.2246377   0.0000000), wk =   0.0042553
        k(  313) = (  -0.2173913  -0.2173913   0.0000000), wk =   0.0042553
        k(  314) = (  -0.2101449  -0.2101449   0.0000000), wk =   0.0042553
        k(  315) = (  -0.2028986  -0.2028986   0.0000000), wk =   0.0042553
        k(  316) = (  -0.1956522  -0.1956522   0.0000000), wk =   0.0042553
        k(  317) = (  -0.1884058  -0.1884058   0.0000000), wk =   0.0042553
        k(  318) = (  -0.1811594  -0.1811594   0.0000000), wk =   0.0042553
        k(  319) = (  -0.1739130  -0.1739130   0.0000000), wk =   0.0042553
        k(  320) = (  -0.1666667  -0.1666667   0.0000000), wk =   0.0042553
        k(  321) = (  -0.1594203  -0.1594203   0.0000000), wk =   0.0042553
        k(  322) = (  -0.1521739  -0.1521739   0.0000000), wk =   0.0042553
        k(  323) = (  -0.1449275  -0.1449275   0.0000000), wk =   0.0042553
        k(  324) = (  -0.1376812  -0.1376812   0.0000000), wk =   0.0042553
        k(  325) = (  -0.1304348  -0.1304348   0.0000000), wk =   0.0042553
        k(  326) = (  -0.1231884  -0.1231884   0.0000000), wk =   0.0042553
        k(  327) = (  -0.1159420  -0.1159420   0.0000000), wk =   0.0042553
        k(  328) = (  -0.1086957  -0.1086957   0.0000000), wk =   0.0042553
        k(  329) = (  -0.1014493  -0.1014493   0.0000000), wk =   0.0042553
        k(  330) = (  -0.0942029  -0.0942029   0.0000000), wk =   0.0042553
        k(  331) = (  -0.0869565  -0.0869565   0.0000000), wk =   0.0042553
        k(  332) = (  -0.0797101  -0.0797101   0.0000000), wk =   0.0042553
        k(  333) = (  -0.0724638  -0.0724638   0.0000000), wk =   0.0042553
        k(  334) = (  -0.0652174  -0.0652174   0.0000000), wk =   0.0042553
        k(  335) = (  -0.0579710  -0.0579710   0.0000000), wk =   0.0042553
        k(  336) = (  -0.0507246  -0.0507246   0.0000000), wk =   0.0042553
        k(  337) = (  -0.0434783  -0.0434783   0.0000000), wk =   0.0042553
        k(  338) = (  -0.0362319  -0.0362319   0.0000000), wk =   0.0042553
        k(  339) = (  -0.0289855  -0.0289855   0.0000000), wk =   0.0042553
        k(  340) = (  -0.0217391  -0.0217391   0.0000000), wk =   0.0042553
        k(  341) = (  -0.0144928  -0.0144928   0.0000000), wk =   0.0042553
        k(  342) = (  -0.0072464  -0.0072464   0.0000000), wk =   0.0042553
        k(  343) = (   0.0000000   0.0000000   0.0000000), wk =   0.0042553
        k(  344) = (   0.0000000   0.0000000  -0.0833333), wk =   0.0042553
        k(  345) = (   0.0000000   0.0000000  -0.1666667), wk =   0.0042553
        k(  346) = (   0.0000000   0.0000000  -0.2500000), wk =   0.0042553
        k(  347) = (   0.0000000   0.0000000  -0.3333333), wk =   0.0042553
        k(  348) = (   0.0000000   0.0000000  -0.4166667), wk =   0.0042553
        k(  349) = (   0.0000000   0.0000000  -0.5000000), wk =   0.0042553
        k(  350) = (  -0.0128205   0.0000000  -0.5000000), wk =   0.0042553
        k(  351) = (  -0.0256410   0.0000000  -0.5000000), wk =   0.0042553
        k(  352) = (  -0.0384615   0.0000000  -0.5000000), wk =   0.0042553
        k(  353) = (  -0.0512821   0.0000000  -0.5000000), wk =   0.0042553
        k(  354) = (  -0.0641026   0.0000000  -0.5000000), wk =   0.0042553
        k(  355) = (  -0.0769231   0.0000000  -0.5000000), wk =   0.0042553
        k(  356) = (  -0.0897436  -0.0000000  -0.5000000), wk =   0.0042553
        k(  357) = (  -0.1025641   0.0000000  -0.5000000), wk =   0.0042553
        k(  358) = (  -0.1153846   0.0000000  -0.5000000), wk =   0.0042553
        k(  359) = (  -0.1282051   0.0000000  -0.5000000), wk =   0.0042553
        k(  360) = (  -0.1410256   0.0000000  -0.5000000), wk =   0.0042553
        k(  361) = (  -0.1538462   0.0000000  -0.5000000), wk =   0.0042553
        k(  362) = (  -0.1666667   0.0000000  -0.5000000), wk =   0.0042553
        k(  363) = (  -0.1794872   0.0000000  -0.5000000), wk =   0.0042553
        k(  364) = (  -0.1923077   0.0000000  -0.5000000), wk =   0.0042553
        k(  365) = (  -0.2051282   0.0000000  -0.5000000), wk =   0.0042553
        k(  366) = (  -0.2179487   0.0000000  -0.5000000), wk =   0.0042553
        k(  367) = (  -0.2307692   0.0000000  -0.5000000), wk =   0.0042553
        k(  368) = (  -0.2435897   0.0000000  -0.5000000), wk =   0.0042553
        k(  369) = (  -0.2564103   0.0000000  -0.5000000), wk =   0.0042553
        k(  370) = (  -0.2692308   0.0000000  -0.5000000), wk =   0.0042553
        k(  371) = (  -0.2820513   0.0000000  -0.5000000), wk =   0.0042553
        k(  372) = (  -0.2948718   0.0000000  -0.5000000), wk =   0.0042553
        k(  373) = (  -0.3076923   0.0000000  -0.5000000), wk =   0.0042553
        k(  374) = (  -0.3205128  -0.0000000  -0.5000000), wk =   0.0042553
        k(  375) = (  -0.3333333   0.0000000  -0.5000000), wk =   0.0042553
        k(  376) = (  -0.3461538  -0.0000000  -0.5000000), wk =   0.0042553
        k(  377) = (  -0.3589744   0.0000000  -0.5000000), wk =   0.0042553
        k(  378) = (  -0.3717949  -0.0000000  -0.5000000), wk =   0.0042553
        k(  379) = (  -0.3846154   0.0000000  -0.5000000), wk =   0.0042553
        k(  380) = (  -0.3974359   0.0000000  -0.5000000), wk =   0.0042553
        k(  381) = (  -0.4102564   0.0000000  -0.5000000), wk =   0.0042553
        k(  382) = (  -0.4230769   0.0000000  -0.5000000), wk =   0.0042553
        k(  383) = (  -0.4358974   0.0000000  -0.5000000), wk =   0.0042553
        k(  384) = (  -0.4487179  -0.0000000  -0.5000000), wk =   0.0042553
        k(  385) = (  -0.4615385   0.0000000  -0.5000000), wk =   0.0042553
        k(  386) = (  -0.4743590   0.0000000  -0.5000000), wk =   0.0042553
        k(  387) = (  -0.4871795   0.0000000  -0.5000000), wk =   0.0042553
        k(  388) = (  -0.5000000   0.0000000  -0.5000000), wk =   0.0042553
        k(  389) = (  -0.4924242  -0.0151515  -0.5000000), wk =   0.0042553
        k(  390) = (  -0.4848485  -0.0303030  -0.5000000), wk =   0.0042553
        k(  391) = (  -0.4772727  -0.0454545  -0.5000000), wk =   0.0042553
        k(  392) = (  -0.4696970  -0.0606061  -0.5000000), wk =   0.0042553
        k(  393) = (  -0.4621212  -0.0757576  -0.5000000), wk =   0.0042553
        k(  394) = (  -0.4545455  -0.0909091  -0.5000000), wk =   0.0042553
        k(  395) = (  -0.4469697  -0.1060606  -0.5000000), wk =   0.0042553
        k(  396) = (  -0.4393939  -0.1212121  -0.5000000), wk =   0.0042553
        k(  397) = (  -0.4318182  -0.1363636  -0.5000000), wk =   0.0042553
        k(  398) = (  -0.4242424  -0.1515152  -0.5000000), wk =   0.0042553
        k(  399) = (  -0.4166667  -0.1666667  -0.5000000), wk =   0.0042553
        k(  400) = (  -0.4090909  -0.1818182  -0.5000000), wk =   0.0042553
        k(  401) = (  -0.4015152  -0.1969697  -0.5000000), wk =   0.0042553
        k(  402) = (  -0.3939394  -0.2121212  -0.5000000), wk =   0.0042553
        k(  403) = (  -0.3863636  -0.2272727  -0.5000000), wk =   0.0042553
        k(  404) = (  -0.3787879  -0.2424242  -0.5000000), wk =   0.0042553
        k(  405) = (  -0.3712121  -0.2575758  -0.5000000), wk =   0.0042553
        k(  406) = (  -0.3636364  -0.2727273  -0.5000000), wk =   0.0042553
        k(  407) = (  -0.3560606  -0.2878788  -0.5000000), wk =   0.0042553
        k(  408) = (  -0.3484848  -0.3030303  -0.5000000), wk =   0.0042553
        k(  409) = (  -0.3409091  -0.3181818  -0.5000000), wk =   0.0042553
        k(  410) = (  -0.3333333  -0.3333333  -0.5000000), wk =   0.0042553
        k(  411) = (  -0.3260870  -0.3260870  -0.5000000), wk =   0.0042553
        k(  412) = (  -0.3188406  -0.3188406  -0.5000000), wk =   0.0042553
        k(  413) = (  -0.3115942  -0.3115942  -0.5000000), wk =   0.0042553
        k(  414) = (  -0.3043478  -0.3043478  -0.5000000), wk =   0.0042553
        k(  415) = (  -0.2971014  -0.2971014  -0.5000000), wk =   0.0042553
        k(  416) = (  -0.2898551  -0.2898551  -0.5000000), wk =   0.0042553
        k(  417) = (  -0.2826087  -0.2826087  -0.5000000), wk =   0.0042553
        k(  418) = (  -0.2753623  -0.2753623  -0.5000000), wk =   0.0042553
        k(  419) = (  -0.2681159  -0.2681159  -0.5000000), wk =   0.0042553
        k(  420) = (  -0.2608696  -0.2608696  -0.5000000), wk =   0.0042553
        k(  421) = (  -0.2536232  -0.2536232  -0.5000000), wk =   0.0042553
        k(  422) = (  -0.2463768  -0.2463768  -0.5000000), wk =   0.0042553
        k(  423) = (  -0.2391304  -0.2391304  -0.5000000), wk =   0.0042553
        k(  424) = (  -0.2318841  -0.2318841  -0.5000000), wk =   0.0042553
        k(  425) = (  -0.2246377  -0.2246377  -0.5000000), wk =   0.0042553
        k(  426) = (  -0.2173913  -0.2173913  -0.5000000), wk =   0.0042553
        k(  427) = (  -0.2101449  -0.2101449  -0.5000000), wk =   0.0042553
        k(  428) = (  -0.2028986  -0.2028986  -0.5000000), wk =   0.0042553
        k(  429) = (  -0.1956522  -0.1956522  -0.5000000), wk =   0.0042553
        k(  430) = (  -0.1884058  -0.1884058  -0.5000000), wk =   0.0042553
        k(  431) = (  -0.1811594  -0.1811594  -0.5000000), wk =   0.0042553
        k(  432) = (  -0.1739130  -0.1739130  -0.5000000), wk =   0.0042553
        k(  433) = (  -0.1666667  -0.1666667  -0.5000000), wk =   0.0042553
        k(  434) = (  -0.1594203  -0.1594203  -0.5000000), wk =   0.0042553
        k(  435) = (  -0.1521739  -0.1521739  -0.5000000), wk =   0.0042553
        k(  436) = (  -0.1449275  -0.1449275  -0.5000000), wk =   0.0042553
        k(  437) = (  -0.1376812  -0.1376812  -0.5000000), wk =   0.0042553
        k(  438) = (  -0.1304348  -0.1304348  -0.5000000), wk =   0.0042553
        k(  439) = (  -0.1231884  -0.1231884  -0.5000000), wk =   0.0042553
        k(  440) = (  -0.1159420  -0.1159420  -0.5000000), wk =   0.0042553
[...]
     3.7755   4.0485   5.4798   7.0003   7.2114   8.6106   9.1045   9.6103
    10.2910  10.5587  11.1915  11.4369  11.6537  12.3322  12.6686  12.6818
    14.0096  14.7718  15.5746  15.8796  16.0964  16.1962

          k =-0.1449-0.2510-0.0990 ( 15976 PWs)   bands (ev):

   -58.5492 -33.9532 -33.9488 -33.9465 -33.9332 -33.9072 -33.9038 -33.9029
   -33.8919 -33.8815 -33.8719 -32.6775 -32.6198 -32.5721 -12.0560 -11.6060
    -2.0396  -1.1035  -0.5580  -0.0558   0.8790   1.3818   1.4981   3.4229
     3.7611   4.1108   5.4865   6.9163   7.1127   8.5203   9.0611   9.7097
    10.2888  10.4403  11.2390  11.5605  11.6979  12.2528  12.6392  12.6484
    14.1908  14.7883  15.6453  16.0325  16.1931  16.2253

          k =-0.1377-0.2385-0.0990 ( 15976 PWs)   bands (ev):

   -58.5495 -33.9522 -33.9494 -33.9471 -33.9338 -33.9067 -33.9030 -33.9030
   -33.8917 -33.8818 -33.8724 -32.6805 -32.6152 -32.5706 -12.1133 -11.6460
    -2.1061  -0.9851  -0.4832   0.0523   0.9123   1.4103   1.4817   3.4714
     3.7550   4.1830   5.4907   6.8355   7.0175   8.4323   8.9984   9.8214
    10.2980  10.3160  11.2747  11.5453  11.9007  12.1733  12.6120  12.6363
    14.3608  14.7437  15.6662  15.9790  16.2980  16.3150

          k =-0.1304-0.2259-0.0990 ( 15984 PWs)   bands (ev):

   -58.5499 -33.9512 -33.9501 -33.9478 -33.9343 -33.9062 -33.9030 -33.9022
   -33.8916 -33.8821 -33.8728 -32.6835 -32.6106 -32.5693 -12.1691 -11.6851
    -2.1734  -0.8638  -0.4152   0.1671   0.9308   1.4341   1.4741   3.5259
     3.7587   4.2641   5.4919   6.7580   6.9261   8.3469   8.9273   9.9310
    10.1911  10.3189  11.2940  11.5312  12.0896  12.1116  12.5937  12.6518
    14.5089  14.6470  15.6596  15.8399  16.3078  16.4069

          k =-0.1232-0.2134-0.0990 ( 16008 PWs)   bands (ev):

   -58.5502 -33.9507 -33.9503 -33.9485 -33.9349 -33.9057 -33.9030 -33.9014
   -33.8915 -33.8824 -33.8732 -32.6865 -32.6060 -32.5680 -12.2232 -11.7230
    -2.2404  -0.7412  -0.3519   0.2852   0.9346   1.4531   1.4756   3.5871
     3.7734   4.3527   5.4899   6.6839   6.8386   8.2647   8.8521  10.0070
    10.0928  10.3512  11.2955  11.5316  11.9980  12.2893  12.6081  12.6981
    14.5153  14.6167  15.6428  15.7105  16.2052  16.4391

          k =-0.1159-0.2008-0.0990 ( 16008 PWs)   bands (ev):

   -58.5505 -33.9513 -33.9493 -33.9491 -33.9355 -33.9053 -33.9030 -33.9006
   -33.8914 -33.8826 -33.8737 -32.6894 -32.6014 -32.5667 -12.2753 -11.7595
    -2.3061  -0.6185  -0.2920   0.4036   0.9256   1.4673   1.4845   3.6559
     3.8002   4.4469   5.4847   6.6130   6.7553   8.1860   8.7747   9.9183
    10.1511  10.3939  11.2810  11.5474  11.8968  12.3718  12.7102  12.7731
    14.3677  14.6583  15.6240  15.6344  16.0961  16.3474

          k =-0.1087-0.1883-0.0990 ( 16010 PWs)   bands (ev):

   -58.5508 -33.9519 -33.9498 -33.9484 -33.9361 -33.9049 -33.9029 -33.8997
   -33.8913 -33.8829 -33.8741 -32.6923 -32.5969 -32.5656 -12.3252 -11.7946
    -2.3699  -0.4968  -0.2344   0.5195   0.9069   1.4766   1.4984   3.7331
     3.8403   4.5449   5.4761   6.5455   6.6763   8.1109   8.6952   9.7961
    10.2355  10.4448  11.2541  11.5767  11.7870  12.3726  12.8711  12.8767
    14.2245  14.6221  15.6070  15.6306  15.9951  16.2217

          k =-0.1014-0.1757-0.0990 ( 16014 PWs)   bands (ev):

   -58.5511 -33.9524 -33.9505 -33.9476 -33.9367 -33.9045 -33.9029 -33.8988
   -33.8912 -33.8832 -33.8745 -32.6951 -32.5925 -32.5645 -12.3728 -11.8280
    -2.4315  -0.3773  -0.1784   0.6308   0.8816   1.4813   1.5144   3.8194
     3.8943   4.6448   5.4645   6.4812   6.6018   8.0399   8.6134   9.6752
    10.3135  10.4994  11.2188  11.6162  11.6721  12.3463  12.9842  13.0336
    14.1125  14.5328  15.5943  15.6703  15.9101  16.0891

          k =-0.0942-0.1632-0.0990 ( 16030 PWs)   bands (ev):

   -58.5514 -33.9529 -33.9512 -33.9468 -33.9373 -33.9041 -33.9028 -33.8979
   -33.8911 -33.8835 -33.8748 -32.6977 -32.5882 -32.5635 -12.4178 -11.8597
    -2.4902  -0.2610  -0.1238   0.7357   0.8524   1.4816   1.5306   3.9151
     3.9627   4.7448   5.4502   6.4199   6.5318   7.9730   8.5288   9.5590
    10.3851  10.5495  11.1786  11.5605  11.6610  12.3106  13.1029  13.1301
    14.0706  14.4294  15.5883  15.6812  15.8726  15.9529

          k =-0.0870-0.1506-0.0990 ( 16014 PWs)   bands (ev):

   -58.5516 -33.9534 -33.9518 -33.9460 -33.9379 -33.9038 -33.9027 -33.8970
   -33.8910 -33.8838 -33.8752 -32.7003 -32.5841 -32.5626 -12.4601 -11.8895
    -2.5459  -0.1487  -0.0705   0.8213   0.8328   1.4779   1.5455   4.0202
     4.0452   4.8433   5.4335   6.3616   6.4666   7.9103   8.4406   9.4495
    10.4525  10.5799  11.1360  11.4682  11.7051  12.2702  13.1364  13.2151
    14.1281  14.3429  15.5906  15.6149  15.8134  15.8959

          k =-0.0797-0.1381-0.0990 ( 16034 PWs)   bands (ev):

   -58.5519 -33.9538 -33.9524 -33.9454 -33.9384 -33.9035 -33.9026 -33.8961
   -33.8910 -33.8840 -33.8755 -32.7027 -32.5802 -32.5618 -12.4996 -11.9173
    -2.5981  -0.0413  -0.0186   0.7898   0.9214   1.4705   1.5583   4.1342
     4.1414   4.9389   5.4149   6.3059   6.4062   7.8520   8.3482   9.3483
    10.5183  10.5679  11.0926  11.4195  11.7418  12.2265  13.0736  13.3051
    14.2654  14.2971  15.5097  15.5944  15.6812  15.9141

          k =-0.0725-0.1255-0.0990 ( 16036 PWs)   bands (ev):

   -58.5521 -33.9542 -33.9530 -33.9447 -33.9389 -33.9032 -33.9025 -33.8953
   -33.8909 -33.8843 -33.8759 -32.7049 -32.5766 -32.5611 -12.5360 -11.9430
    -2.6466   0.0318   0.0601   0.7591   1.0008   1.4601   1.5688   4.2498
     4.2565   5.0300   5.3951   6.2526   6.3506   7.7982   8.2513   9.2565
    10.4971  10.5848  11.0500  11.4329  11.7642  12.1797  12.9849  13.3581
    14.3088  14.4381  15.3815  15.5122  15.6524  15.8967

          k =-0.0652-0.1130-0.0990 ( 16036 PWs)   bands (ev):

   -58.5523 -33.9545 -33.9535 -33.9441 -33.9394 -33.9029 -33.9024 -33.8945
   -33.8908 -33.8845 -33.8762 -32.7070 -32.5731 -32.5604 -12.5694 -11.9665
    -2.6912   0.0802   0.1549   0.7298   1.0709   1.4471   1.5771   4.3686
     4.3860   5.1155   5.3746   6.2011   6.2999   7.7488   8.1501   9.1750
    10.3736  10.6539  11.0099  11.5047  11.7665  12.1297  12.9000  13.3706
    14.3782  14.6053  15.2325  15.4000  15.6917  15.8494

          k =-0.0580-0.1004-0.0990 ( 16034 PWs)   bands (ev):

   -58.5525 -33.9549 -33.9540 -33.9436 -33.9399 -33.9027 -33.9023 -33.8937
   -33.8908 -33.8847 -33.8764 -32.7089 -32.5700 -32.5598 -12.5995 -11.9878
    -2.7316   0.1263   0.2421   0.7026   1.1318   1.4324   1.5833   4.4953
     4.5214   5.1943   5.3541   6.1508   6.2541   7.7040   8.0455   9.1041
    10.2172  10.7270  10.9730  11.6186  11.7459  12.0761  12.8331  13.3537
    14.4825  14.7149  15.0729  15.3509  15.7499  15.7916

          k =-0.0507-0.0879-0.0990 ( 16032 PWs)   bands (ev):

   -58.5527 -33.9551 -33.9545 -33.9432 -33.9403 -33.9025 -33.9022 -33.8930
   -33.8907 -33.8849 -33.8767 -32.7106 -32.5672 -32.5593 -12.6263 -12.0067
    -2.7676   0.1694   0.3210   0.6778   1.1838   1.4165   1.5877   4.6266
     4.6612   5.2656   5.3342   6.1008   6.2132   7.6636   7.9394   9.0436
    10.0456  10.8049  10.9397  11.7042  11.7610  12.0188  12.7883  13.3222
    14.5583  14.7159  14.9523  15.4169  15.7390  15.8237

          k =-0.0435-0.0753-0.0990 ( 16044 PWs)   bands (ev):

   -58.5529 -33.9554 -33.9549 -33.9428 -33.9406 -33.9023 -33.9021 -33.8924
   -33.8907 -33.8851 -33.8769 -32.7121 -32.5647 -32.5588 -12.6497 -12.0232
    -2.7992   0.2090   0.3910   0.6559   1.2275   1.4002   1.5907   4.7586
     4.8035   5.3155   5.3285   6.0500   6.1770   7.6278   7.8344   8.9931
     9.8717  10.8880  10.9104  11.6476  11.9237  11.9572  12.7629  13.2866
    14.4812  14.6374  14.9855  15.5687  15.7009  15.9110

          k =-0.0362-0.0628-0.0990 ( 16040 PWs)   bands (ev):

   -58.5530 -33.9556 -33.9552 -33.9425 -33.9410 -33.9022 -33.9020 -33.8919
   -33.8907 -33.8853 -33.8770 -32.7134 -32.5625 -32.5584 -12.6696 -12.0373
    -2.8261   0.2444   0.4514   0.6369   1.2633   1.3845   1.5925   4.8865
     4.9462   5.2985   5.3825   5.9967   6.1456   7.5966   7.7339   8.9518
     9.7054  10.8852  10.9758  11.5846  11.8908  12.1019  12.7513  13.2526
    14.2918  14.5347  15.1215  15.6866  15.7501  16.0090

          k =-0.0290-0.0502-0.0990 ( 16056 PWs)   bands (ev):

   -58.5531 -33.9558 -33.9555 -33.9422 -33.9412 -33.9020 -33.9020 -33.8914
   -33.8906 -33.8854 -33.8772 -32.7145 -32.5608 -32.5581 -12.6860 -12.0489
    -2.8483   0.2748   0.5016   0.6212   1.2917   1.3700   1.5936   5.0048
     5.0866   5.2839   5.4271   5.9394   6.1190   7.5701   7.6420   8.9191
     9.5549  10.8644  11.0676  11.5233  11.8194  12.2926  12.7479  13.2231
    14.0709  14.4350  15.2599  15.7148  15.9305  16.1135

          k =-0.0217-0.0377-0.0990 ( 16060 PWs)   bands (ev):

   -58.5532 -33.9559 -33.9558 -33.9420 -33.9414 -33.9020 -33.9019 -33.8911
   -33.8906 -33.8855 -33.8773 -32.7153 -32.5594 -32.5579 -12.6987 -12.0579
    -2.8656   0.2995   0.5412   0.6089   1.3133   1.3577   1.5941   5.1073
     5.2216   5.2721   5.4620   5.8764   6.0972   7.5487   7.5633   8.8944
     9.4280  10.8480  11.1620  11.4699  11.7427  12.4937  12.7486  13.1994
    13.8403  14.3501  15.3506  15.8112  16.0875  16.2178

          k =-0.0145-0.0251-0.0990 ( 16072 PWs)   bands (ev):

   -58.5532 -33.9560 -33.9559 -33.9418 -33.9416 -33.9019 -33.9019 -33.8908
   -33.8906 -33.8856 -33.8774 -32.7159 -32.5584 -32.5577 -12.7079 -12.0644
    -2.8780   0.3178   0.5698   0.6000   1.3284   1.3483   1.5944   5.1873
     5.2633   5.3470   5.4871   5.8071   6.0808   7.5026   7.5327   8.8772
     9.3313  10.8363  11.2564  11.4289  11.6622  12.7037  12.7506  13.1823
    13.6073  14.2861  15.3893  15.9680  16.1814  16.3104

          k =-0.0072-0.0126-0.0990 ( 16086 PWs)   bands (ev):

   -58.5533 -33.9560 -33.9560 -33.9417 -33.9417 -33.9018 -33.9018 -33.8906
   -33.8906 -33.8856 -33.8774 -32.7163 -32.5578 -32.5576 -12.7134 -12.0683
    -2.8855   0.3290   0.5870   0.5946   1.3374   1.3424   1.5944   5.2385
     5.2580   5.4539   5.5022   5.7360   6.0704   7.4641   7.5229   8.8670
     9.2708  10.8292  11.3446  11.4032  11.5828  12.7523  12.9208  13.1720
    13.3758  14.2464  15.4020  16.1392  16.2035  16.3801

          k = 0.0000 0.0000-0.0990 ( 16104 PWs)   bands (ev):

   -58.5533 -33.9561 -33.9561 -33.9417 -33.9417 -33.9018 -33.9018 -33.8906
   -33.8906 -33.8856 -33.8775 -32.7164 -32.5576 -32.5576 -12.7153 -12.0696
    -2.8880   0.3328   0.5928   0.5928   1.3403   1.3403   1.5945   5.2562
     5.2562   5.5072   5.5072   5.6949   6.0668   7.4509   7.5195   8.8636
     9.2501  10.8268  11.3945  11.3945  11.5359  12.7530  13.1233  13.1685
    13.1685  14.2330  15.4048  16.2062  16.2335  16.4088

          k =-0.5000-0.2887-0.0990 ( 15908 PWs)   bands (ev):

   -58.5452 -33.9711 -33.9423 -33.9368 -33.9224 -33.9124 -33.9080 -33.9064
   -33.8923 -33.8788 -33.8662 -32.6869 -32.6407 -32.5797 -11.2209 -11.0384
    -3.1887  -2.3741  -1.2117  -0.0447   0.4184   1.3643   1.9320   3.5660
     3.8416   5.1196   5.7569   5.9874   7.8529   8.0523   8.6230   9.4323
     9.9213  10.4382  10.5713  11.3185  11.3407  11.4727  12.4305  12.6701
    13.3676  14.2050  15.0244  15.3961  15.3963  15.7146

          k =-0.5000-0.2887-0.0825 ( 15916 PWs)   bands (ev):

   -58.5452 -33.9711 -33.9423 -33.9368 -33.9224 -33.9124 -33.9080 -33.9064
   -33.8923 -33.8788 -33.8662 -32.6869 -32.6407 -32.5797 -11.2209 -11.0384
    -3.1887  -2.3741  -1.2117  -0.0447   0.4184   1.3643   1.9320   3.5660
     3.8416   5.1196   5.7569   5.9874   7.8530   8.0521   8.6234   9.4302
     9.9282  10.4104  10.6030  11.2122  11.4590  11.4727  12.3265  12.7846
    13.3367  14.2193  14.9946  15.3903  15.3961  15.6008

          k =-0.5000-0.2887-0.0660 ( 15918 PWs)   bands (ev):

   -58.5452 -33.9711 -33.9423 -33.9368 -33.9224 -33.9124 -33.9080 -33.9064
   -33.8923 -33.8788 -33.8662 -32.6869 -32.6407 -32.5797 -11.2209 -11.0384
    -3.1887  -2.3741  -1.2117  -0.0447   0.4184   1.3643   1.9320   3.5660
     3.8416   5.1196   5.7569   5.9874   7.8531   8.0518   8.6243   9.4246
     9.9483  10.3600  10.6602  11.1218  11.4727  11.5821  12.1785  12.9545
    13.2727  14.2527  14.9104  15.2486  15.3963  15.6459

          k =-0.5000-0.2887-0.0495 ( 15920 PWs)   bands (ev):

   -58.5452 -33.9711 -33.9423 -33.9368 -33.9224 -33.9124 -33.9080 -33.9064
   -33.8923 -33.8788 -33.8662 -32.6869 -32.6407 -32.5797 -11.2209 -11.0384
    -3.1887  -2.3741  -1.2117  -0.0447   0.4184   1.3643   1.9320   3.5660
     3.8416   5.1196   5.7569   5.9874   7.8533   8.0513   8.6256   9.4170
     9.9796  10.3083  10.7042  11.0786  11.4727  11.6566  12.0886  12.9944
    13.3202  14.2873  14.7555  15.1094  15.3966  15.8044

          k =-0.5000-0.2887-0.0330 ( 15910 PWs)   bands (ev):

   -58.5452 -33.9711 -33.9423 -33.9368 -33.9224 -33.9124 -33.9080 -33.9064
   -33.8923 -33.8788 -33.8662 -32.6869 -32.6407 -32.5797 -11.2209 -11.0384
    -3.1887  -2.3741  -1.2117  -0.0447   0.4184   1.3643   1.9320   3.5660
     3.8416   5.1196   5.7569   5.9874   7.8535   8.0508   8.6269   9.4096
    10.0186  10.2589  10.7146  11.0997  11.4727  11.6225  12.1213  12.8786
    13.5182  14.3032  14.5474  15.0389  15.3969  15.9991

          k =-0.5000-0.2887-0.0165 ( 15912 PWs)   bands (ev):

   -58.5452 -33.9711 -33.9423 -33.9368 -33.9224 -33.9124 -33.9080 -33.9064
   -33.8923 -33.8788 -33.8662 -32.6869 -32.6407 -32.5797 -11.2209 -11.0384
    -3.1887  -2.3741  -1.2117  -0.0447   0.4184   1.3643   1.9320   3.5660
     3.8416   5.1196   5.7569   5.9874   7.8536   8.0505   8.6279   9.4043
    10.0584  10.2151  10.7043  11.1638  11.4727  11.5295  12.2233  12.7452
    13.7507  14.2177  14.4069  15.0072  15.3971  16.1968

          k =-0.5000-0.2887 0.0000 ( 15910 PWs)   bands (ev):

   -58.5452 -33.9711 -33.9423 -33.9368 -33.9224 -33.9124 -33.9080 -33.9064
   -33.8923 -33.8788 -33.8662 -32.6869 -32.6407 -32.5797 -11.2209 -11.0384
    -3.1887  -2.3741  -1.2117  -0.0447   0.4184   1.3643   1.9320   3.5660
     3.8416   5.1196   5.7569   5.9874   7.8537   8.0503   8.6283   9.4024
    10.0795  10.1931  10.6980  11.2061  11.4727  11.4757  12.2840  12.6770
    13.9667  14.0200  14.3905  14.9978  15.3971  16.3068

          k =-0.3333-0.5774-0.0990 ( 15954 PWs)   bands (ev):

   -58.5442 -33.9678 -33.9420 -33.9307 -33.9302 -33.9199 -33.9075 -33.8959
   -33.8958 -33.8804 -33.8658 -32.6662 -32.6314 -32.6193 -11.0067 -10.8805
    -2.2547  -2.1453  -1.5738  -0.8905  -0.7654   0.2895   2.1550   3.2531
     3.9352   4.6092   5.8972   7.1195   7.1347   9.2027  10.0873  10.1298
    11.0434  11.1447  11.5189  11.8183  11.9570  12.5529  12.6004  13.2599
    13.3388  13.6051  13.7180  14.0735  14.4682  14.7516

          k =-0.3333-0.5774-0.0825 ( 15957 PWs)   bands (ev):

   -58.5442 -33.9678 -33.9420 -33.9307 -33.9302 -33.9199 -33.9075 -33.8959
   -33.8958 -33.8804 -33.8658 -32.6662 -32.6314 -32.6193 -11.0067 -10.8805
    -2.2547  -2.1453  -1.5738  -0.8905  -0.7654   0.2895   2.1550   3.2531
     3.9352   4.6092   5.8972   7.1195   7.1347   9.2028  10.0865  10.1305
    11.0383  11.1517  11.4975  11.8534  11.9724  12.4112  12.7549  13.1565
    13.4334  13.4519  13.8686  14.0744  14.4563  14.7759

          k =-0.3333-0.5774-0.0660 ( 15969 PWs)   bands (ev):

   -58.5442 -33.9678 -33.9420 -33.9307 -33.9302 -33.9199 -33.9075 -33.8959
   -33.8958 -33.8804 -33.8658 -32.6662 -32.6314 -32.6193 -11.0067 -10.8805
    -2.2547  -2.1453  -1.5738  -0.8905  -0.7654   0.2895   2.1550   3.2531
     3.9352   4.6092   5.8972   7.1194   7.1347   9.2032  10.0844  10.1325
    11.0248  11.1719  11.4528  11.9388  12.0165  12.2635  12.9417  13.0181
    13.2570  13.5453  14.0403  14.0888  14.4290  14.7562

          k =-0.3333-0.5774-0.0495 ( 15963 PWs)   bands (ev):

   -58.5442 -33.9678 -33.9420 -33.9307 -33.9302 -33.9199 -33.9075 -33.8959
   -33.8958 -33.8804 -33.8658 -32.6662 -32.6314 -32.6193 -11.0068 -10.8805
    -2.2547  -2.1453  -1.5738  -0.8905  -0.7654   0.2895   2.1550   3.2531
     3.9352   4.6092   5.8972   7.1194   7.1347   9.2037  10.0816  10.1353
    11.0072  11.2020  11.4079  12.0507  12.0842  12.1342  12.8785  13.0662
    13.1384  13.6405  14.0679  14.2241  14.3986  14.5213

          k =-0.3333-0.5774-0.0330 ( 15942 PWs)   bands (ev):

   -58.5442 -33.9678 -33.9420 -33.9307 -33.9302 -33.9199 -33.9075 -33.8959
   -33.8958 -33.8804 -33.8658 -32.6662 -32.6314 -32.6193 -11.0067 -10.8805
    -2.2547  -2.1453  -1.5738  -0.8905  -0.7654   0.2895   2.1550   3.2531
     3.9352   4.6092   5.8972   7.1194   7.1347   9.2042  10.0789  10.1381
    10.9904  11.2359  11.3724  12.0296  12.1678  12.1772  12.7451  12.8855
    13.3420  13.7132  14.0694  14.2869  14.3411  14.3721

          k =-0.3333-0.5774-0.0165 ( 15939 PWs)   bands (ev):

   -58.5442 -33.9678 -33.9420 -33.9307 -33.9302 -33.9199 -33.9075 -33.8959
   -33.8958 -33.8804 -33.8658 -32.6662 -32.6314 -32.6193 -11.0067 -10.8805
    -2.2547  -2.1453  -1.5738  -0.8905  -0.7654   0.2895   2.1550   3.2531
     3.9352   4.6092   5.8972   7.1194   7.1347   9.2046  10.0769  10.1402
    10.9785  11.2642  11.3501  11.9591  12.2531  12.3057  12.6306  12.7250
    13.5448  13.7590  14.0647  14.0698  14.3541  14.4062

          k =-0.3333-0.5774 0.0000 ( 15942 PWs)   bands (ev):

   -58.5442 -33.9678 -33.9420 -33.9307 -33.9302 -33.9199 -33.9075 -33.8959
   -33.8958 -33.8804 -33.8658 -32.6662 -32.6314 -32.6193 -11.0067 -10.8805
    -2.2547  -2.1453  -1.5738  -0.8905  -0.7654   0.2895   2.1550   3.2531
     3.9352   4.6092   5.8972   7.1194   7.1347   9.2047  10.0762  10.1410
    10.9743  11.2755  11.3426  11.9338  12.2984  12.3816  12.5757  12.6386
    13.6776  13.7747  13.9253  14.0699  14.3476  14.4261

     Writing all to output data dir ./outdir/MoTe2.save/
 
     init_run     :      1.20s CPU      1.36s WALL (       1 calls)
     electrons    :   9065.73s CPU  12651.64s WALL (       1 calls)

     Called by init_run:
     wfcinit      :      0.00s CPU      0.00s WALL (       1 calls)
     wfcinit:atom :      1.85s CPU      1.93s WALL (     470 calls)
     wfcinit:wfcr :    207.47s CPU    300.06s WALL (     470 calls)
     potinit      :      0.15s CPU      0.24s WALL (       1 calls)
     hinit0       :      0.44s CPU      0.49s WALL (       1 calls)

     Called by electrons:
     c_bands      :   9065.72s CPU  12651.63s WALL (       1 calls)
     v_of_rho     :      0.13s CPU      0.20s WALL (       1 calls)
     v_h          :      0.01s CPU      0.02s WALL (       1 calls)
     v_xc         :      0.12s CPU      0.18s WALL (       1 calls)

     Called by c_bands:
     init_us_2    :      3.37s CPU      3.54s WALL (     470 calls)
     init_us_2:cp :      3.36s CPU      3.53s WALL (     470 calls)
     cegterg      :   8790.47s CPU  12272.02s WALL (    1836 calls)

     Called by sum_band:

     Called by *egterg:
     cdiaghg      :    129.89s CPU    134.01s WALL (   33373 calls)
     cegterg:over :    785.97s CPU   1004.43s WALL (   32903 calls)
     cegterg:upda :    327.70s CPU    331.16s WALL (   32903 calls)
     cegterg:last :    563.43s CPU    568.12s WALL (   17498 calls)
     h_psi        :   6688.20s CPU   9777.71s WALL (   35209 calls)
     g_psi        :     82.86s CPU     83.98s WALL (   32903 calls)

     Called by h_psi:
     h_psi:calbec :    407.65s CPU    496.37s WALL (   35209 calls)
     vloc_psi     :   5968.92s CPU   8964.65s WALL (   35209 calls)
     add_vuspsi   :    292.21s CPU    295.96s WALL (   35209 calls)

     General routines
     calbec       :    407.43s CPU    496.20s WALL (   35209 calls)
     fft          :      0.08s CPU      0.17s WALL (      11 calls)
     fftw         :   5492.69s CPU   8422.43s WALL ( 1538134 calls)
     davcio       :      0.18s CPU      8.43s WALL (     940 calls)
 
     Parallel routines
 
     PWSCF        :      2h31m CPU      3h32m WALL

 
   This run was terminated on:   1:55:12  10Jan2024            

=------------------------------------------------------------------------------=
   JOB DONE.
=------------------------------------------------------------------------------=
