export BASH_ENV=/etc/profile.d/modules.sh

     Program PWSCF v.7.2 starts on  9Jan2024 at  4:20: 7 

     This program is part of the open-source Quantum ESPRESSO suite
     for quantum simulation of materials; please cite
         "P. Giannozzi et al., J. Phys.:Condens. Matter 21 395502 (2009);
         "P. Giannozzi et al., J. Phys.:Condens. Matter 29 465901 (2017);
         "P. Giannozzi et al., J. Chem. Phys. 152 154105 (2020);
          URL http://www.quantum-espresso.org", 
     in publications or presentations arising from this work. More details at
     http://www.quantum-espresso.org/quote

     Parallel version (MPI & OpenMP), running on       4 processor cores
     Number of MPI processes:                 2
     Threads/MPI process:                     2

     MPI processes distributed on     2 nodes
     53346 MiB available memory on the printing compute node when the environment starts
 
     Reading input from nscf.in

     Current dimensions of program PWSCF are:
     Max number of different atomic species (ntypx) = 10
     Max number of k-points (npk) =  40000
     Max angular momentum in pseudopotentials (lmaxx) =  4

     Atomic positions and unit cell read from directory:
     ./outdir/MoTe2.save/
     Atomic positions from file used, from input discarded
 
 
     R & G space division:  proc/nbgrp/npool/nimage =       2
     Subspace diagonalization in iterative solution of the eigenvalue problem:
     a serial algorithm will be used

 
     Parallelization info
     --------------------
     sticks:   dense  smooth     PW     G-vecs:    dense   smooth      PW
     Min         501     501    141                63787    63787    9755
     Max         502     502    142                63792    63792    9770
     Sum        1003    1003    283               127579   127579   19525
 
     Using Slab Decomposition
 


     bravais-lattice index     =            4
     lattice parameter (alat)  =       6.7094  a.u.
     unit-cell volume          =    1321.0864 (a.u.)^3
     number of atoms/cell      =            3
     number of atomic types    =            2
     number of electrons       =        46.00
     number of Kohn-Sham states=           46
     kinetic-energy cutoff     =      80.0000  Ry
     charge density cutoff     =     320.0000  Ry
     Exchange-correlation= PBE
                           (   1   4   3   4   0   0   0)

     celldm(1)=   6.709444  celldm(2)=   0.000000  celldm(3)=   5.050578
     celldm(4)=   0.000000  celldm(5)=   0.000000  celldm(6)=   0.000000

     crystal axes: (cart. coord. in units of alat)
               a(1) = (   1.000000   0.000000   0.000000 )  
               a(2) = (  -0.500000   0.866025   0.000000 )  
               a(3) = (   0.000000   0.000000   5.050578 )  

     reciprocal axes: (cart. coord. in units 2 pi/alat)
               b(1) = (  1.000000  0.577350  0.000000 )  
               b(2) = (  0.000000  1.154701  0.000000 )  
               b(3) = (  0.000000  0.000000  0.197997 )  


     PseudoPot. # 1 for Mo read from file:
     ./Mo.upf
     MD5 check sum: 7ca7a9feba7bf08d88d14bc7fbf60c1e
     Pseudo is Norm-conserving + core correction, Zval = 14.0
     Generated using ONCVPSP code by D. R. Hamann
     Using radial grid of 1640 points,  6 beta functions with: 
                l(1) =   0
                l(2) =   0
                l(3) =   1
                l(4) =   1
                l(5) =   2
                l(6) =   2

     PseudoPot. # 2 for Te read from file:
     ./Te.upf
     MD5 check sum: 5809bc2f3532353a97804e96cbe9e3f7
     Pseudo is Norm-conserving + core correction, Zval = 16.0
     Generated using ONCVPSP code by D. R. Hamann
     Using radial grid of 1294 points,  9 beta functions with: 
                l(1) =   0
                l(2) =   0
                l(3) =   0
                l(4) =   1
                l(5) =   1
                l(6) =   2
                l(7) =   2
                l(8) =   3
                l(9) =   3

     atomic species   valence    mass     pseudopotential
        Mo            14.00    95.96000     Mo( 1.00)
        Te            16.00   127.60000     Te( 1.00)

     12 Sym. Ops. (no inversion) found


                                    s                        frac. trans.

      isym =  1     identity                                     

 cryst.   s( 1) = (     1          0          0      )
                  (     0          1          0      )
                  (     0          0          1      )

 cart.    s( 1) = (  1.0000000 -0.0000000  0.0000000 )
                  (  0.0000000  1.0000000  0.0000000 )
                  (  0.0000000  0.0000000  1.0000000 )


      isym =  2     180 deg rotation - cart. axis [0,1,0]        

 cryst.   s( 2) = (    -1          0          0      )
                  (     1          1          0      )
                  (     0          0         -1      )

 cart.    s( 2) = ( -1.0000000  0.0000000  0.0000000 )
                  (  0.0000000  1.0000000  0.0000000 )
                  (  0.0000000  0.0000000 -1.0000000 )


      isym =  3     120 deg rotation - cryst. axis [0,0,1]       

 cryst.   s( 3) = (     0          1          0      )
                  (    -1         -1          0      )
                  (     0          0          1      )

 cart.    s( 3) = ( -0.5000000 -0.8660254  0.0000000 )
                  (  0.8660254 -0.5000000  0.0000000 )
                  (  0.0000000  0.0000000  1.0000000 )


      isym =  4     120 deg rotation - cryst. axis [0,0,-1]      

 cryst.   s( 4) = (    -1         -1          0      )
                  (     1          0          0      )
                  (     0          0          1      )

 cart.    s( 4) = ( -0.5000000  0.8660254  0.0000000 )
                  ( -0.8660254 -0.5000000  0.0000000 )
                  (  0.0000000  0.0000000  1.0000000 )


      isym =  5     180 deg rotation - cryst. axis [1,-1,0]      

 cryst.   s( 5) = (     0         -1          0      )
                  (    -1          0          0      )
                  (     0          0         -1      )

 cart.    s( 5) = (  0.5000000 -0.8660254  0.0000000 )
                  ( -0.8660254 -0.5000000  0.0000000 )
                  (  0.0000000  0.0000000 -1.0000000 )


      isym =  6     180 deg rotation - cryst. axis [2,1,0]       

 cryst.   s( 6) = (     1          1          0      )
                  (     0         -1          0      )
                  (     0          0         -1      )

 cart.    s( 6) = (  0.5000000  0.8660254  0.0000000 )
                  (  0.8660254 -0.5000000  0.0000000 )
                  (  0.0000000  0.0000000 -1.0000000 )


      isym =  7     inv. 180 deg rotation - cart. axis [0,0,1]   

 cryst.   s( 7) = (     1          0          0      )
                  (     0          1          0      )
                  (     0          0         -1      )

 cart.    s( 7) = (  1.0000000 -0.0000000  0.0000000 )
                  (  0.0000000  1.0000000  0.0000000 )
                  (  0.0000000  0.0000000 -1.0000000 )


      isym =  8     inv. 180 deg rotation - cart. axis [1,0,0]   

 cryst.   s( 8) = (    -1          0          0      )
                  (     1          1          0      )
                  (     0          0          1      )

 cart.    s( 8) = ( -1.0000000  0.0000000  0.0000000 )
                  (  0.0000000  1.0000000  0.0000000 )
                  (  0.0000000  0.0000000  1.0000000 )


      isym =  9     inv.  60 deg rotation - cryst. axis [0,0,1]  

 cryst.   s( 9) = (    -1         -1          0      )
                  (     1          0          0      )
                  (     0          0         -1      )

 cart.    s( 9) = ( -0.5000000  0.8660254  0.0000000 )
                  ( -0.8660254 -0.5000000  0.0000000 )
                  (  0.0000000  0.0000000 -1.0000000 )


      isym = 10     inv.  60 deg rotation - cryst. axis [0,0,-1] 

 cryst.   s(10) = (     0          1          0      )
                  (    -1         -1          0      )
                  (     0          0         -1      )

 cart.    s(10) = ( -0.5000000 -0.8660254  0.0000000 )
                  (  0.8660254 -0.5000000  0.0000000 )
                  (  0.0000000  0.0000000 -1.0000000 )


      isym = 11     inv. 180 deg rotation - cryst. axis [0,1,0]  

 cryst.   s(11) = (     1          1          0      )
                  (     0         -1          0      )
                  (     0          0          1      )

 cart.    s(11) = (  0.5000000  0.8660254  0.0000000 )
                  (  0.8660254 -0.5000000  0.0000000 )
                  (  0.0000000  0.0000000  1.0000000 )


      isym = 12     inv. 180 deg rotation - cryst. axis [1,1,0]  

 cryst.   s(12) = (     0         -1          0      )
                  (    -1          0          0      )
                  (     0          0          1      )

 cart.    s(12) = (  0.5000000 -0.8660254  0.0000000 )
                  ( -0.8660254 -0.5000000  0.0000000 )
                  (  0.0000000  0.0000000  1.0000000 )


     point group D_3h (-62m)
     there are  6 classes
     the character table:

       E     2C3   3C2   s_h   2S3   3s_v 
A'_1   1.00  1.00  1.00  1.00  1.00  1.00
A'_2   1.00  1.00 -1.00  1.00  1.00 -1.00
E'     2.00 -1.00  0.00  2.00 -1.00  0.00
A''1   1.00  1.00  1.00 -1.00 -1.00 -1.00
A''2   1.00  1.00 -1.00 -1.00 -1.00  1.00
E''    2.00 -1.00  0.00 -2.00  1.00  0.00

     the symmetry operations in each class and the name of the first element:

     E        1
          identity                                               
     2C3      3    4
          120 deg rotation - cryst. axis [0,0,1]                 
     3C2      2    6    5
          180 deg rotation - cart. axis [0,1,0]                  
     s_h      7
          inv. 180 deg rotation - cart. axis [0,0,1]             
     2S3      9   10
          inv.  60 deg rotation - cryst. axis [0,0,1]            
     3s_v     8   11   12
          inv. 180 deg rotation - cart. axis [1,0,0]             

   Cartesian axes

     site n.     atom                  positions (alat units)
         1           Te  tau(   1) = (  -0.0000000   0.5773503   4.5377065  )
         2           Te  tau(   2) = (  -0.0000000   0.5773503   0.5128712  )
         3           Mo  tau(   3) = (   0.0000000   0.0000000   0.0000000  )

   Crystallographic axes

     site n.     atom                  positions (cryst. coord.)
         1           Te  tau(   1) = (  0.3333333  0.6666667  0.8984530  )
         2           Te  tau(   2) = (  0.3333333  0.6666667  0.1015470  )
         3           Mo  tau(   3) = (  0.0000000  0.0000000  0.0000000  )

     number of k points=   127 (tetrahedron method)
                       cart. coord. in units 2pi/alat
        k(    1) = (   0.0000000   0.0000000   0.0000000), wk =   0.0015432
        k(    2) = (   0.0000000   0.0320750   0.0000000), wk =   0.0092593
        k(    3) = (   0.0000000   0.0641500   0.0000000), wk =   0.0092593
        k(    4) = (   0.0000000   0.0962250   0.0000000), wk =   0.0092593
        k(    5) = (   0.0000000   0.1283001   0.0000000), wk =   0.0092593
        k(    6) = (   0.0000000   0.1603751   0.0000000), wk =   0.0092593
        k(    7) = (   0.0000000   0.1924501   0.0000000), wk =   0.0092593
        k(    8) = (   0.0000000   0.2245251   0.0000000), wk =   0.0092593
        k(    9) = (   0.0000000   0.2566001   0.0000000), wk =   0.0092593
        k(   10) = (   0.0000000   0.2886751   0.0000000), wk =   0.0092593
        k(   11) = (   0.0000000   0.3207501   0.0000000), wk =   0.0092593
        k(   12) = (   0.0000000   0.3528252   0.0000000), wk =   0.0092593
        k(   13) = (   0.0000000   0.3849002   0.0000000), wk =   0.0092593
        k(   14) = (   0.0000000   0.4169752   0.0000000), wk =   0.0092593
        k(   15) = (   0.0000000   0.4490502   0.0000000), wk =   0.0092593
        k(   16) = (   0.0000000   0.4811252   0.0000000), wk =   0.0092593
        k(   17) = (   0.0000000   0.5132002   0.0000000), wk =   0.0092593
        k(   18) = (   0.0000000   0.5452753   0.0000000), wk =   0.0092593
        k(   19) = (   0.0000000  -0.5773503   0.0000000), wk =   0.0046296
        k(   20) = (   0.0277778   0.0481125   0.0000000), wk =   0.0092593
        k(   21) = (   0.0277778   0.0801875   0.0000000), wk =   0.0185185
        k(   22) = (   0.0277778   0.1122626   0.0000000), wk =   0.0185185
        k(   23) = (   0.0277778   0.1443376   0.0000000), wk =   0.0185185
        k(   24) = (   0.0277778   0.1764126   0.0000000), wk =   0.0185185
        k(   25) = (   0.0277778   0.2084876   0.0000000), wk =   0.0185185
        k(   26) = (   0.0277778   0.2405626   0.0000000), wk =   0.0185185
        k(   27) = (   0.0277778   0.2726376   0.0000000), wk =   0.0185185
        k(   28) = (   0.0277778   0.3047126   0.0000000), wk =   0.0185185
        k(   29) = (   0.0277778   0.3367877   0.0000000), wk =   0.0185185
        k(   30) = (   0.0277778   0.3688627   0.0000000), wk =   0.0185185
        k(   31) = (   0.0277778   0.4009377   0.0000000), wk =   0.0185185
        k(   32) = (   0.0277778   0.4330127   0.0000000), wk =   0.0185185
        k(   33) = (   0.0277778   0.4650877   0.0000000), wk =   0.0185185
        k(   34) = (   0.0277778   0.4971627   0.0000000), wk =   0.0185185
        k(   35) = (   0.0277778   0.5292377   0.0000000), wk =   0.0185185
        k(   36) = (   0.0277778   0.5613128   0.0000000), wk =   0.0185185
        k(   37) = (   0.0555556   0.0962250   0.0000000), wk =   0.0092593
        k(   38) = (   0.0555556   0.1283001   0.0000000), wk =   0.0185185
        k(   39) = (   0.0555556   0.1603751   0.0000000), wk =   0.0185185
        k(   40) = (   0.0555556   0.1924501   0.0000000), wk =   0.0185185
        k(   41) = (   0.0555556   0.2245251   0.0000000), wk =   0.0185185
        k(   42) = (   0.0555556   0.2566001   0.0000000), wk =   0.0185185
        k(   43) = (   0.0555556   0.2886751   0.0000000), wk =   0.0185185
        k(   44) = (   0.0555556   0.3207501   0.0000000), wk =   0.0185185
        k(   45) = (   0.0555556   0.3528252   0.0000000), wk =   0.0185185
        k(   46) = (   0.0555556   0.3849002   0.0000000), wk =   0.0185185
        k(   47) = (   0.0555556   0.4169752   0.0000000), wk =   0.0185185
        k(   48) = (   0.0555556   0.4490502   0.0000000), wk =   0.0185185
        k(   49) = (   0.0555556   0.4811252   0.0000000), wk =   0.0185185
        k(   50) = (   0.0555556   0.5132002   0.0000000), wk =   0.0185185
        k(   51) = (   0.0555556   0.5452753   0.0000000), wk =   0.0185185
        k(   52) = (   0.0555556   0.5773503   0.0000000), wk =   0.0092593
        k(   53) = (   0.0833333   0.1443376   0.0000000), wk =   0.0092593
        k(   54) = (   0.0833333   0.1764126   0.0000000), wk =   0.0185185
        k(   55) = (   0.0833333   0.2084876   0.0000000), wk =   0.0185185
        k(   56) = (   0.0833333   0.2405626   0.0000000), wk =   0.0185185
        k(   57) = (   0.0833333   0.2726376   0.0000000), wk =   0.0185185
        k(   58) = (   0.0833333   0.3047126   0.0000000), wk =   0.0185185
        k(   59) = (   0.0833333   0.3367877   0.0000000), wk =   0.0185185
        k(   60) = (   0.0833333   0.3688627   0.0000000), wk =   0.0185185
        k(   61) = (   0.0833333   0.4009377   0.0000000), wk =   0.0185185
        k(   62) = (   0.0833333   0.4330127   0.0000000), wk =   0.0185185
        k(   63) = (   0.0833333   0.4650877   0.0000000), wk =   0.0185185
        k(   64) = (   0.0833333   0.4971627   0.0000000), wk =   0.0185185
        k(   65) = (   0.0833333   0.5292377   0.0000000), wk =   0.0185185
        k(   66) = (   0.0833333   0.5613128   0.0000000), wk =   0.0185185
        k(   67) = (   0.1111111   0.1924501   0.0000000), wk =   0.0092593
        k(   68) = (   0.1111111   0.2245251   0.0000000), wk =   0.0185185
        k(   69) = (   0.1111111   0.2566001   0.0000000), wk =   0.0185185
        k(   70) = (   0.1111111   0.2886751   0.0000000), wk =   0.0185185
        k(   71) = (   0.1111111   0.3207501   0.0000000), wk =   0.0185185
        k(   72) = (   0.1111111   0.3528252   0.0000000), wk =   0.0185185
        k(   73) = (   0.1111111   0.3849002   0.0000000), wk =   0.0185185
        k(   74) = (   0.1111111   0.4169752   0.0000000), wk =   0.0185185
        k(   75) = (   0.1111111   0.4490502   0.0000000), wk =   0.0185185
        k(   76) = (   0.1111111   0.4811252   0.0000000), wk =   0.0185185
        k(   77) = (   0.1111111   0.5132002   0.0000000), wk =   0.0185185
        k(   78) = (   0.1111111   0.5452753   0.0000000), wk =   0.0185185
        k(   79) = (   0.1111111   0.5773503   0.0000000), wk =   0.0092593
        k(   80) = (   0.1388889   0.2405626   0.0000000), wk =   0.0092593
        k(   81) = (   0.1388889   0.2726376   0.0000000), wk =   0.0185185
        k(   82) = (   0.1388889   0.3047126   0.0000000), wk =   0.0185185
        k(   83) = (   0.1388889   0.3367877   0.0000000), wk =   0.0185185
        k(   84) = (   0.1388889   0.3688627   0.0000000), wk =   0.0185185
        k(   85) = (   0.1388889   0.4009377   0.0000000), wk =   0.0185185
        k(   86) = (   0.1388889   0.4330127   0.0000000), wk =   0.0185185
        k(   87) = (   0.1388889   0.4650877   0.0000000), wk =   0.0185185
        k(   88) = (   0.1388889   0.4971627   0.0000000), wk =   0.0185185
        k(   89) = (   0.1388889   0.5292377   0.0000000), wk =   0.0185185
        k(   90) = (   0.1388889   0.5613128   0.0000000), wk =   0.0185185
        k(   91) = (   0.1666667   0.2886751   0.0000000), wk =   0.0092593
        k(   92) = (   0.1666667   0.3207501   0.0000000), wk =   0.0185185
        k(   93) = (   0.1666667   0.3528252   0.0000000), wk =   0.0185185
        k(   94) = (   0.1666667   0.3849002   0.0000000), wk =   0.0185185
        k(   95) = (   0.1666667   0.4169752   0.0000000), wk =   0.0185185
        k(   96) = (   0.1666667   0.4490502   0.0000000), wk =   0.0185185
        k(   97) = (   0.1666667   0.4811252   0.0000000), wk =   0.0185185
        k(   98) = (   0.1666667   0.5132002   0.0000000), wk =   0.0185185
        k(   99) = (   0.1666667   0.5452753   0.0000000), wk =   0.0185185
        k(  100) = (   0.1666667   0.5773503   0.0000000), wk =   0.0092593
        k(  101) = (   0.1944444   0.3367877   0.0000000), wk =   0.0092593
        k(  102) = (   0.1944444   0.3688627   0.0000000), wk =   0.0185185
        k(  103) = (   0.1944444   0.4009377   0.0000000), wk =   0.0185185
        k(  104) = (   0.1944444   0.4330127   0.0000000), wk =   0.0185185
        k(  105) = (   0.1944444   0.4650877   0.0000000), wk =   0.0185185
        k(  106) = (   0.1944444   0.4971627   0.0000000), wk =   0.0185185
        k(  107) = (   0.1944444   0.5292377   0.0000000), wk =   0.0185185
        k(  108) = (   0.1944444   0.5613128   0.0000000), wk =   0.0185185
        k(  109) = (   0.2222222   0.3849002   0.0000000), wk =   0.0092593
        k(  110) = (   0.2222222   0.4169752   0.0000000), wk =   0.0185185
        k(  111) = (   0.2222222   0.4490502   0.0000000), wk =   0.0185185
        k(  112) = (   0.2222222   0.4811252   0.0000000), wk =   0.0185185
        k(  113) = (   0.2222222   0.5132002   0.0000000), wk =   0.0185185
        k(  114) = (   0.2222222   0.5452753   0.0000000), wk =   0.0185185
        k(  115) = (   0.2222222   0.5773503   0.0000000), wk =   0.0092593
        k(  116) = (   0.2500000   0.4330127   0.0000000), wk =   0.0092593
        k(  117) = (   0.2500000   0.4650877   0.0000000), wk =   0.0185185
        k(  118) = (   0.2500000   0.4971627   0.0000000), wk =   0.0185185
        k(  119) = (   0.2500000   0.5292377   0.0000000), wk =   0.0185185
        k(  120) = (   0.2500000   0.5613128   0.0000000), wk =   0.0185185
        k(  121) = (   0.2777778   0.4811252   0.0000000), wk =   0.0092593
        k(  122) = (   0.2777778   0.5132002   0.0000000), wk =   0.0185185
        k(  123) = (   0.2777778   0.5452753   0.0000000), wk =   0.0185185
        k(  124) = (   0.2777778   0.5773503   0.0000000), wk =   0.0092593
        k(  125) = (   0.3055556   0.5292377   0.0000000), wk =   0.0092593
        k(  126) = (   0.3055556   0.5613128   0.0000000), wk =   0.0185185
        k(  127) = (   0.3333333   0.5773503   0.0000000), wk =   0.0030864

                       cryst. coord.
        k(    1) = (   0.0000000   0.0000000   0.0000000), wk =   0.0015432
        k(    2) = (   0.0000000   0.0277778   0.0000000), wk =   0.0092593
        k(    3) = (   0.0000000   0.0555556   0.0000000), wk =   0.0092593
        k(    4) = (   0.0000000   0.0833333   0.0000000), wk =   0.0092593
        k(    5) = (   0.0000000   0.1111111   0.0000000), wk =   0.0092593
        k(    6) = (   0.0000000   0.1388889   0.0000000), wk =   0.0092593
        k(    7) = (   0.0000000   0.1666667   0.0000000), wk =   0.0092593
        k(    8) = (   0.0000000   0.1944444   0.0000000), wk =   0.0092593
        k(    9) = (   0.0000000   0.2222222   0.0000000), wk =   0.0092593
        k(   10) = (   0.0000000   0.2500000   0.0000000), wk =   0.0092593
        k(   11) = (   0.0000000   0.2777778   0.0000000), wk =   0.0092593
        k(   12) = (   0.0000000   0.3055556   0.0000000), wk =   0.0092593
        k(   13) = (   0.0000000   0.3333333   0.0000000), wk =   0.0092593
        k(   14) = (   0.0000000   0.3611111   0.0000000), wk =   0.0092593
        k(   15) = (   0.0000000   0.3888889   0.0000000), wk =   0.0092593
        k(   16) = (   0.0000000   0.4166667   0.0000000), wk =   0.0092593
        k(   17) = (   0.0000000   0.4444444   0.0000000), wk =   0.0092593
        k(   18) = (   0.0000000   0.4722222   0.0000000), wk =   0.0092593
        k(   19) = (   0.0000000  -0.5000000   0.0000000), wk =   0.0046296
        k(   20) = (   0.0277778   0.0277778   0.0000000), wk =   0.0092593
        k(   21) = (   0.0277778   0.0555556   0.0000000), wk =   0.0185185
        k(   22) = (   0.0277778   0.0833333   0.0000000), wk =   0.0185185
        k(   23) = (   0.0277778   0.1111111   0.0000000), wk =   0.0185185
        k(   24) = (   0.0277778   0.1388889   0.0000000), wk =   0.0185185
        k(   25) = (   0.0277778   0.1666667   0.0000000), wk =   0.0185185
        k(   26) = (   0.0277778   0.1944444   0.0000000), wk =   0.0185185
        k(   27) = (   0.0277778   0.2222222   0.0000000), wk =   0.0185185
        k(   28) = (   0.0277778   0.2500000   0.0000000), wk =   0.0185185
        k(   29) = (   0.0277778   0.2777778   0.0000000), wk =   0.0185185
        k(   30) = (   0.0277778   0.3055556   0.0000000), wk =   0.0185185
        k(   31) = (   0.0277778   0.3333333   0.0000000), wk =   0.0185185
        k(   32) = (   0.0277778   0.3611111   0.0000000), wk =   0.0185185
        k(   33) = (   0.0277778   0.3888889   0.0000000), wk =   0.0185185
        k(   34) = (   0.0277778   0.4166667   0.0000000), wk =   0.0185185
        k(   35) = (   0.0277778   0.4444444   0.0000000), wk =   0.0185185
        k(   36) = (   0.0277778   0.4722222   0.0000000), wk =   0.0185185
        k(   37) = (   0.0555556   0.0555556   0.0000000), wk =   0.0092593
        k(   38) = (   0.0555556   0.0833333   0.0000000), wk =   0.0185185
        k(   39) = (   0.0555556   0.1111111   0.0000000), wk =   0.0185185
        k(   40) = (   0.0555556   0.1388889   0.0000000), wk =   0.0185185
        k(   41) = (   0.0555556   0.1666667   0.0000000), wk =   0.0185185
        k(   42) = (   0.0555556   0.1944444   0.0000000), wk =   0.0185185
        k(   43) = (   0.0555556   0.2222222   0.0000000), wk =   0.0185185
        k(   44) = (   0.0555556   0.2500000   0.0000000), wk =   0.0185185
        k(   45) = (   0.0555556   0.2777778   0.0000000), wk =   0.0185185
        k(   46) = (   0.0555556   0.3055556   0.0000000), wk =   0.0185185
        k(   47) = (   0.0555556   0.3333333   0.0000000), wk =   0.0185185
        k(   48) = (   0.0555556   0.3611111   0.0000000), wk =   0.0185185
        k(   49) = (   0.0555556   0.3888889   0.0000000), wk =   0.0185185
        k(   50) = (   0.0555556   0.4166667   0.0000000), wk =   0.0185185
        k(   51) = (   0.0555556   0.4444444   0.0000000), wk =   0.0185185
        k(   52) = (   0.0555556   0.4722222   0.0000000), wk =   0.0092593
        k(   53) = (   0.0833333   0.0833333   0.0000000), wk =   0.0092593
        k(   54) = (   0.0833333   0.1111111   0.0000000), wk =   0.0185185
        k(   55) = (   0.0833333   0.1388889   0.0000000), wk =   0.0185185
        k(   56) = (   0.0833333   0.1666667   0.0000000), wk =   0.0185185
        k(   57) = (   0.0833333   0.1944444   0.0000000), wk =   0.0185185
        k(   58) = (   0.0833333   0.2222222   0.0000000), wk =   0.0185185
        k(   59) = (   0.0833333   0.2500000   0.0000000), wk =   0.0185185
        k(   60) = (   0.0833333   0.2777778   0.0000000), wk =   0.0185185
        k(   61) = (   0.0833333   0.3055556   0.0000000), wk =   0.0185185
        k(   62) = (   0.0833333   0.3333333   0.0000000), wk =   0.0185185
        k(   63) = (   0.0833333   0.3611111   0.0000000), wk =   0.0185185
        k(   64) = (   0.0833333   0.3888889   0.0000000), wk =   0.0185185
        k(   65) = (   0.0833333   0.4166667   0.0000000), wk =   0.0185185
        k(   66) = (   0.0833333   0.4444444   0.0000000), wk =   0.0185185
        k(   67) = (   0.1111111   0.1111111   0.0000000), wk =   0.0092593
        k(   68) = (   0.1111111   0.1388889   0.0000000), wk =   0.0185185
        k(   69) = (   0.1111111   0.1666667   0.0000000), wk =   0.0185185
        k(   70) = (   0.1111111   0.1944444   0.0000000), wk =   0.0185185
        k(   71) = (   0.1111111   0.2222222   0.0000000), wk =   0.0185185
        k(   72) = (   0.1111111   0.2500000   0.0000000), wk =   0.0185185
        k(   73) = (   0.1111111   0.2777778   0.0000000), wk =   0.0185185
        k(   74) = (   0.1111111   0.3055556   0.0000000), wk =   0.0185185
        k(   75) = (   0.1111111   0.3333333   0.0000000), wk =   0.0185185
        k(   76) = (   0.1111111   0.3611111   0.0000000), wk =   0.0185185
        k(   77) = (   0.1111111   0.3888889   0.0000000), wk =   0.0185185
        k(   78) = (   0.1111111   0.4166667   0.0000000), wk =   0.0185185
        k(   79) = (   0.1111111   0.4444444   0.0000000), wk =   0.0092593
        k(   80) = (   0.1388889   0.1388889   0.0000000), wk =   0.0092593
        k(   81) = (   0.1388889   0.1666667   0.0000000), wk =   0.0185185
        k(   82) = (   0.1388889   0.1944444   0.0000000), wk =   0.0185185
        k(   83) = (   0.1388889   0.2222222   0.0000000), wk =   0.0185185
        k(   84) = (   0.1388889   0.2500000   0.0000000), wk =   0.0185185
        k(   85) = (   0.1388889   0.2777778   0.0000000), wk =   0.0185185
        k(   86) = (   0.1388889   0.3055556   0.0000000), wk =   0.0185185
        k(   87) = (   0.1388889   0.3333333   0.0000000), wk =   0.0185185
        k(   88) = (   0.1388889   0.3611111   0.0000000), wk =   0.0185185
        k(   89) = (   0.1388889   0.3888889   0.0000000), wk =   0.0185185
        k(   90) = (   0.1388889   0.4166667   0.0000000), wk =   0.0185185
        k(   91) = (   0.1666667   0.1666667   0.0000000), wk =   0.0092593
        k(   92) = (   0.1666667   0.1944444   0.0000000), wk =   0.0185185
        k(   93) = (   0.1666667   0.2222222   0.0000000), wk =   0.0185185
        k(   94) = (   0.1666667   0.2500000   0.0000000), wk =   0.0185185
        k(   95) = (   0.1666667   0.2777778   0.0000000), wk =   0.0185185
        k(   96) = (   0.1666667   0.3055556   0.0000000), wk =   0.0185185
        k(   97) = (   0.1666667   0.3333333   0.0000000), wk =   0.0185185
        k(   98) = (   0.1666667   0.3611111   0.0000000), wk =   0.0185185
        k(   99) = (   0.1666667   0.3888889   0.0000000), wk =   0.0185185
        k(  100) = (   0.1666667   0.4166667   0.0000000), wk =   0.0092593
        k(  101) = (   0.1944444   0.1944444   0.0000000), wk =   0.0092593
        k(  102) = (   0.1944444   0.2222222   0.0000000), wk =   0.0185185
        k(  103) = (   0.1944444   0.2500000   0.0000000), wk =   0.0185185
        k(  104) = (   0.1944444   0.2777778   0.0000000), wk =   0.0185185
        k(  105) = (   0.1944444   0.3055556   0.0000000), wk =   0.0185185
        k(  106) = (   0.1944444   0.3333333   0.0000000), wk =   0.0185185
        k(  107) = (   0.1944444   0.3611111   0.0000000), wk =   0.0185185
        k(  108) = (   0.1944444   0.3888889   0.0000000), wk =   0.0185185
        k(  109) = (   0.2222222   0.2222222   0.0000000), wk =   0.0092593
        k(  110) = (   0.2222222   0.2500000   0.0000000), wk =   0.0185185
        k(  111) = (   0.2222222   0.2777778   0.0000000), wk =   0.0185185
        k(  112) = (   0.2222222   0.3055556   0.0000000), wk =   0.0185185
        k(  113) = (   0.2222222   0.3333333   0.0000000), wk =   0.0185185
        k(  114) = (   0.2222222   0.3611111   0.0000000), wk =   0.0185185
        k(  115) = (   0.2222222   0.3888889   0.0000000), wk =   0.0092593
        k(  116) = (   0.2500000   0.2500000   0.0000000), wk =   0.0092593
        k(  117) = (   0.2500000   0.2777778   0.0000000), wk =   0.0185185
        k(  118) = (   0.2500000   0.3055556   0.0000000), wk =   0.0185185
        k(  119) = (   0.2500000   0.3333333   0.0000000), wk =   0.0185185
        k(  120) = (   0.2500000   0.3611111   0.0000000), wk =   0.0185185
        k(  121) = (   0.2777778   0.2777778   0.0000000), wk =   0.0092593
        k(  122) = (   0.2777778   0.3055556   0.0000000), wk =   0.0185185
        k(  123) = (   0.2777778   0.3333333   0.0000000), wk =   0.0185185
        k(  124) = (   0.2777778   0.3611111   0.0000000), wk =   0.0092593
        k(  125) = (   0.3055556   0.3055556   0.0000000), wk =   0.0092593
        k(  126) = (   0.3055556   0.3333333   0.0000000), wk =   0.0185185
        k(  127) = (   0.3333333   0.3333333   0.0000000), wk =   0.0030864

     Dense  grid:   127579 G-vectors     FFT dimensions: (  40,  40, 200)

     Dynamical RAM for                 wfc:       5.60 MB

     Dynamical RAM for     wfc (w. buffer):       5.60 MB

     Dynamical RAM for           str. fact:       1.95 MB

     Dynamical RAM for           local pot:       0.00 MB

     Dynamical RAM for          nlocal pot:      10.23 MB

     Dynamical RAM for                qrad:       8.61 MB

     Dynamical RAM for          rho,v,vnew:       6.58 MB

     Dynamical RAM for           G-vectors:       4.14 MB

     Dynamical RAM for          h,s,v(r/c):       0.39 MB

     Dynamical RAM for          <psi|beta>:       0.06 MB

     Dynamical RAM for                 psi:      11.20 MB

     Dynamical RAM for                hpsi:      11.20 MB

     Dynamical RAM for      wfcinit/wfcrot:      11.25 MB

     Estimated static dynamical RAM per process >      46.13 MB

     Estimated max dynamical RAM per process >      68.99 MB

     Estimated total dynamical RAM >     137.97 MB

     The potential is recalculated from file :
     ./outdir/MoTe2.save/charge-density

     Starting wfcs are   28 randomized atomic wfcs +   18 random wfcs

     Band Structure Calculation
     Davidson diagonalization with overlap

     Computing kpt #:     1  of   127
     total cpu time spent up to now is       11.5 secs

     Computing kpt #:     2  of   127
     total cpu time spent up to now is       22.3 secs

     Computing kpt #:     3  of   127
     total cpu time spent up to now is       31.9 secs

     Computing kpt #:     4  of   127
     total cpu time spent up to now is       41.2 secs

     Computing kpt #:     5  of   127
     total cpu time spent up to now is       50.5 secs

     Computing kpt #:     6  of   127
     total cpu time spent up to now is       59.8 secs

     Computing kpt #:     7  of   127
     total cpu time spent up to now is       70.0 secs

     Computing kpt #:     8  of   127
     total cpu time spent up to now is       79.8 secs

     Computing kpt #:     9  of   127
     total cpu time spent up to now is       89.2 secs

     Computing kpt #:    10  of   127
     total cpu time spent up to now is       98.6 secs

     Computing kpt #:    11  of   127
     total cpu time spent up to now is      108.3 secs

     Computing kpt #:    12  of   127
     total cpu time spent up to now is      118.8 secs

     Computing kpt #:    13  of   127
     total cpu time spent up to now is      129.9 secs

     Computing kpt #:    14  of   127
     total cpu time spent up to now is      140.0 secs

     Computing kpt #:    15  of   127
     total cpu time spent up to now is      151.7 secs

     Computing kpt #:    16  of   127
     total cpu time spent up to now is      162.4 secs

     Computing kpt #:    17  of   127
     total cpu time spent up to now is      172.4 secs

     Computing kpt #:    18  of   127
     total cpu time spent up to now is      182.4 secs

     Computing kpt #:    19  of   127
     total cpu time spent up to now is      192.9 secs

     Computing kpt #:    20  of   127
     total cpu time spent up to now is      203.2 secs

     Computing kpt #:    21  of   127
     total cpu time spent up to now is      212.9 secs

     Computing kpt #:    22  of   127
     total cpu time spent up to now is      222.5 secs

     Computing kpt #:    23  of   127
     total cpu time spent up to now is      232.1 secs

     Computing kpt #:    24  of   127
     total cpu time spent up to now is      242.4 secs

     Computing kpt #:    25  of   127
     total cpu time spent up to now is      252.5 secs

     Computing kpt #:    26  of   127
     total cpu time spent up to now is      262.1 secs

     Computing kpt #:    27  of   127
     total cpu time spent up to now is      271.5 secs

     Computing kpt #:    28  of   127
     total cpu time spent up to now is      281.1 secs

     Computing kpt #:    29  of   127
     total cpu time spent up to now is      291.0 secs

     Computing kpt #:    30  of   127
     total cpu time spent up to now is      301.6 secs

     Computing kpt #:    31  of   127
     total cpu time spent up to now is      311.8 secs

     Computing kpt #:    32  of   127
     total cpu time spent up to now is      322.9 secs

     Computing kpt #:    33  of   127
     total cpu time spent up to now is      334.0 secs

     Computing kpt #:    34  of   127
     total cpu time spent up to now is      344.3 secs

     Computing kpt #:    35  of   127
     total cpu time spent up to now is      354.5 secs

     Computing kpt #:    36  of   127
     total cpu time spent up to now is      364.7 secs

     Computing kpt #:    37  of   127
     total cpu time spent up to now is      374.2 secs

     Computing kpt #:    38  of   127
     total cpu time spent up to now is      383.7 secs

     Computing kpt #:    39  of   127
     total cpu time spent up to now is      393.8 secs

     Computing kpt #:    40  of   127
     total cpu time spent up to now is      404.1 secs

     Computing kpt #:    41  of   127
     total cpu time spent up to now is      413.6 secs

     Computing kpt #:    42  of   127
     total cpu time spent up to now is      423.1 secs

     Computing kpt #:    43  of   127
     total cpu time spent up to now is      432.8 secs

     Computing kpt #:    44  of   127
     total cpu time spent up to now is      442.4 secs

     Computing kpt #:    45  of   127
     total cpu time spent up to now is      452.1 secs

     Computing kpt #:    46  of   127
     total cpu time spent up to now is      462.5 secs

     Computing kpt #:    47  of   127
     total cpu time spent up to now is      472.8 secs

     Computing kpt #:    48  of   127
     total cpu time spent up to now is      483.1 secs

     Computing kpt #:    49  of   127
     total cpu time spent up to now is      493.6 secs

     Computing kpt #:    50  of   127
     total cpu time spent up to now is      503.8 secs

     Computing kpt #:    51  of   127
     total cpu time spent up to now is      514.1 secs

     Computing kpt #:    52  of   127
     total cpu time spent up to now is      523.8 secs

     Computing kpt #:    53  of   127
     total cpu time spent up to now is      534.0 secs

     Computing kpt #:    54  of   127
     total cpu time spent up to now is      544.8 secs

     Computing kpt #:    55  of   127
     total cpu time spent up to now is      555.2 secs

     Computing kpt #:    56  of   127
     total cpu time spent up to now is      564.8 secs

     Computing kpt #:    57  of   127
     total cpu time spent up to now is      574.4 secs

     Computing kpt #:    58  of   127
     total cpu time spent up to now is      584.2 secs

     Computing kpt #:    59  of   127
     total cpu time spent up to now is      594.1 secs

     Computing kpt #:    60  of   127
     total cpu time spent up to now is      603.8 secs

     Computing kpt #:    61  of   127
     total cpu time spent up to now is      613.5 secs

     Computing kpt #:    62  of   127
     total cpu time spent up to now is      623.2 secs

     Computing kpt #:    63  of   127
     total cpu time spent up to now is      633.3 secs

     Computing kpt #:    64  of   127
     total cpu time spent up to now is      643.5 secs

     Computing kpt #:    65  of   127
     total cpu time spent up to now is      653.7 secs

     Computing kpt #:    66  of   127
     total cpu time spent up to now is      663.9 secs

     Computing kpt #:    67  of   127
     total cpu time spent up to now is      674.3 secs

     Computing kpt #:    68  of   127
     total cpu time spent up to now is      684.1 secs

     Computing kpt #:    69  of   127
     total cpu time spent up to now is      694.8 secs

     Computing kpt #:    70  of   127
     total cpu time spent up to now is      705.7 secs

     Computing kpt #:    71  of   127
     total cpu time spent up to now is      716.3 secs

     Computing kpt #:    72  of   127
     total cpu time spent up to now is      726.8 secs

     Computing kpt #:    73  of   127
     total cpu time spent up to now is      736.3 secs

     Computing kpt #:    74  of   127
     total cpu time spent up to now is      746.0 secs

     Computing kpt #:    75  of   127
     total cpu time spent up to now is      755.7 secs

     Computing kpt #:    76  of   127
     total cpu time spent up to now is      766.1 secs

     Computing kpt #:    77  of   127
     total cpu time spent up to now is      777.5 secs

     Computing kpt #:    78  of   127
     total cpu time spent up to now is      787.6 secs

     Computing kpt #:    79  of   127
     total cpu time spent up to now is      797.8 secs

     Computing kpt #:    80  of   127
     total cpu time spent up to now is      808.6 secs

     Computing kpt #:    81  of   127
     total cpu time spent up to now is      819.3 secs

     Computing kpt #:    82  of   127
     total cpu time spent up to now is      830.0 secs

     Computing kpt #:    83  of   127
     total cpu time spent up to now is      840.6 secs

     Computing kpt #:    84  of   127
     total cpu time spent up to now is      850.3 secs

     Computing kpt #:    85  of   127
     total cpu time spent up to now is      859.8 secs

     Computing kpt #:    86  of   127
     total cpu time spent up to now is      869.5 secs

     Computing kpt #:    87  of   127
     total cpu time spent up to now is      879.2 secs

     Computing kpt #:    88  of   127
     total cpu time spent up to now is      889.7 secs

     Computing kpt #:    89  of   127
     total cpu time spent up to now is      899.4 secs

     Computing kpt #:    90  of   127
     total cpu time spent up to now is      909.1 secs

     Computing kpt #:    91  of   127
     total cpu time spent up to now is      919.7 secs

     Computing kpt #:    92  of   127
     total cpu time spent up to now is      930.4 secs

     Computing kpt #:    93  of   127
     total cpu time spent up to now is      940.3 secs

     Computing kpt #:    94  of   127
     total cpu time spent up to now is      949.8 secs

     Computing kpt #:    95  of   127
     total cpu time spent up to now is      959.4 secs

     Computing kpt #:    96  of   127
     total cpu time spent up to now is      969.1 secs

     Computing kpt #:    97  of   127
     total cpu time spent up to now is      979.3 secs

     Computing kpt #:    98  of   127
     total cpu time spent up to now is      989.7 secs

     Computing kpt #:    99  of   127
     total cpu time spent up to now is      999.6 secs

     Computing kpt #:   100  of   127
     total cpu time spent up to now is     1009.4 secs

     Computing kpt #:   101  of   127
     total cpu time spent up to now is     1019.2 secs

     Computing kpt #:   102  of   127
     total cpu time spent up to now is     1029.1 secs

     Computing kpt #:   103  of   127
     total cpu time spent up to now is     1039.4 secs

     Computing kpt #:   104  of   127
     total cpu time spent up to now is     1049.0 secs

     Computing kpt #:   105  of   127
     total cpu time spent up to now is     1059.7 secs

     Computing kpt #:   106  of   127
     total cpu time spent up to now is     1069.6 secs

     Computing kpt #:   107  of   127
     total cpu time spent up to now is     1079.4 secs

     Computing kpt #:   108  of   127
     total cpu time spent up to now is     1089.3 secs

     Computing kpt #:   109  of   127
     total cpu time spent up to now is     1099.0 secs

     Computing kpt #:   110  of   127
     total cpu time spent up to now is     1108.7 secs

     Computing kpt #:   111  of   127
     total cpu time spent up to now is     1118.3 secs

     Computing kpt #:   112  of   127
     total cpu time spent up to now is     1128.0 secs

     Computing kpt #:   113  of   127
     total cpu time spent up to now is     1137.9 secs

     Computing kpt #:   114  of   127
     total cpu time spent up to now is     1147.8 secs

     Computing kpt #:   115  of   127
     total cpu time spent up to now is     1157.5 secs

     Computing kpt #:   116  of   127
     total cpu time spent up to now is     1167.2 secs

     Computing kpt #:   117  of   127
     total cpu time spent up to now is     1176.8 secs

     Computing kpt #:   118  of   127
     total cpu time spent up to now is     1186.8 secs

     Computing kpt #:   119  of   127
     total cpu time spent up to now is     1196.8 secs

     Computing kpt #:   120  of   127
     total cpu time spent up to now is     1207.4 secs

     Computing kpt #:   121  of   127
     total cpu time spent up to now is     1217.2 secs

     Computing kpt #:   122  of   127
     total cpu time spent up to now is     1227.2 secs

     Computing kpt #:   123  of   127
     total cpu time spent up to now is     1237.3 secs

     Computing kpt #:   124  of   127
     total cpu time spent up to now is     1248.1 secs

     Computing kpt #:   125  of   127
     total cpu time spent up to now is     1258.1 secs

     Computing kpt #:   126  of   127
     total cpu time spent up to now is     1268.7 secs

     Computing kpt #:   127  of   127
     total cpu time spent up to now is     1278.4 secs

     ethr =  1.30E-12,  avg # of iterations = 63.0

     total cpu time spent up to now is     1278.6 secs

     End of band structure calculation

          k = 0.0000 0.0000 0.0000 ( 16021 PWs)   bands (ev):

   -58.5533 -33.9561 -33.9561 -33.9417 -33.9417 -33.9018 -33.9018 -33.8906
   -33.8906 -33.8856 -33.8775 -32.7164 -32.5576 -32.5576 -12.7152 -12.0696
    -2.8880   0.3328   0.5928   0.5928   1.3403   1.3403   1.5944   5.2562
     5.2562   5.5072   5.5072   5.6304   6.2804   6.8935   8.0138   8.8971
     9.3501  10.1130  11.3945  11.3945  12.5624  12.7728  13.1685  13.1685
    13.2267  13.3368  15.0601  16.1458  16.4088  16.4088

     occupation numbers 
     1.0000   1.0000   1.0000   1.0000   1.0000   1.0000   1.0000   1.0000
     1.0000   1.0000   1.0000   1.0000   1.0000   1.0000   1.0000   1.0000
     1.0000   1.0000   1.0000   1.0000   1.0000   1.0000   1.0000   0.0000
     0.0000   0.0000   0.0000   0.0000   0.0000   0.0000   0.0000   0.0000
     0.0000   0.0000   0.0000   0.0000   0.0000   0.0000   0.0000   0.0000
     0.0000   0.0000   0.0000   0.0000   0.0000   0.0000

          k = 0.0000 0.0321 0.0000 ( 16045 PWs)   bands (ev):

   -58.5532 -33.9560 -33.9559 -33.9418 -33.9415 -33.9019 -33.9019 -33.8908
   -33.8906 -33.8855 -33.8774 -32.7158 -32.5586 -32.5577 -12.7063 -12.0632
    -2.8758   0.3145   0.5646   0.6016   1.3259   1.3498   1.5943   5.1726
     5.2649   5.3145   5.4828   5.7562   6.2987   6.9395   8.0577   8.9329
     9.4277  10.1103  11.3533  11.4372  12.5780  12.5901  12.9829  13.1854
    13.2760  13.7455  15.0942  15.8171  16.2645  16.2898

     occupation numbers 
     1.0000   1.0000   1.0000   1.0000   1.0000   1.0000   1.0000   1.0000
     1.0000   1.0000   1.0000   1.0000   1.0000   1.0000   1.0000   1.0000
     1.0000   1.0000   1.0000   1.0000   1.0000   1.0000   1.0000   0.0000
     0.0000   0.0000   0.0000   0.0000   0.0000   0.0000   0.0000   0.0000
     0.0000   0.0000   0.0000   0.0000   0.0000   0.0000   0.0000   0.0000
     0.0000   0.0000   0.0000   0.0000   0.0000   0.0000

          k = 0.0000 0.0642 0.0000 ( 16053 PWs)   bands (ev):

   -58.5531 -33.9557 -33.9554 -33.9423 -33.9411 -33.9021 -33.9020 -33.8916
   -33.8906 -33.8853 -33.8771 -32.7140 -32.5615 -32.5582 -12.6794 -12.0443
    -2.8394   0.2624   0.4813   0.6277   1.2838   1.3727   1.5932   4.9562
     5.0223   5.2902   5.4120   5.8771   6.3478   7.0504   8.1866   9.0077
     9.6603  10.1023  11.2520  11.5623  12.1943  12.6049  12.9724  13.2363
    13.4113  14.2656  15.1818  15.3469  15.9743  16.0203

     occupation numbers 
     1.0000   1.0000   1.0000   1.0000   1.0000   1.0000   1.0000   1.0000
     1.0000   1.0000   1.0000   1.0000   1.0000   1.0000   1.0000   1.0000
     1.0000   1.0000   1.0000   1.0000   1.0000   1.0000   1.0000   0.0000
     0.0000   0.0000   0.0000   0.0000   0.0000   0.0000   0.0000   0.0000
     0.0000   0.0000   0.0000   0.0000   0.0000   0.0000   0.0000   0.0000
     0.0000   0.0000   0.0000   0.0000   0.0000   0.0000

          k = 0.0000 0.0962 0.0000 ( 16041 PWs)   bands (ev):

   -58.5528 -33.9552 -33.9546 -33.9431 -33.9404 -33.9024 -33.9022 -33.8928
   -33.8907 -33.8850 -33.8767 -32.7112 -32.5663 -32.5590 -12.6351 -12.0130
    -2.7795   0.1828   0.3462   0.6708   1.2167   1.3947   1.5888   4.6760
     4.7053   5.3016   5.3291   5.9764   6.4205   7.1810   8.3859   9.0918
     9.9940  10.0894  11.1298  11.7610  11.8319  12.6156  13.0088  13.3214
    13.5907  14.6044  15.0989  15.2166  15.6994  15.8038

     occupation numbers 
     1.0000   1.0000   1.0000   1.0000   1.0000   1.0000   1.0000   1.0000
     1.0000   1.0000   1.0000   1.0000   1.0000   1.0000   1.0000   1.0000
     1.0000   1.0000   1.0000   1.0000   1.0000   1.0000   1.0000   0.0000
     0.0000   0.0000   0.0000   0.0000   0.0000   0.0000   0.0000   0.0000
     0.0000   0.0000   0.0000   0.0000   0.0000   0.0000   0.0000   0.0000
     0.0000   0.0000   0.0000   0.0000   0.0000   0.0000

          k = 0.0000 0.1283 0.0000 ( 16033 PWs)   bands (ev):

   -58.5524 -33.9546 -33.9536 -33.9441 -33.9394 -33.9028 -33.9025 -33.8944
   -33.8908 -33.8845 -33.8762 -32.7073 -32.5728 -32.5601 -12.5740 -11.9698
    -2.6975   0.0810   0.1644   0.7299   1.1292   1.3973   1.5774   4.3928
     4.3953   5.1610   5.3777   6.0732   6.5152   7.3098   8.6219   9.1865
    10.0747  10.2797  11.0124  11.6317  12.0200  12.6004  13.0525  13.4406
    13.7511  14.2990  15.0674  15.3695  15.5556  15.9816

     occupation numbers 
     1.0000   1.0000   1.0000   1.0000   1.0000   1.0000   1.0000   1.0000
     1.0000   1.0000   1.0000   1.0000   1.0000   1.0000   1.0000   1.0000
     1.0000   1.0000   1.0000   1.0000   1.0000   1.0000   1.0000   0.0000
     0.0000   0.0000   0.0000   0.0000   0.0000   0.0000   0.0000   0.0000
     0.0000   0.0000   0.0000   0.0000   0.0000   0.0000   0.0000   0.0000
     0.0000   0.0000   0.0000   0.0000   0.0000   0.0000

          k = 0.0000 0.1604 0.0000 ( 15997 PWs)   bands (ev):

   -58.5519 -33.9539 -33.9523 -33.9455 -33.9382 -33.9033 -33.9028 -33.8962
   -33.8909 -33.8840 -33.8755 -32.7025 -32.5808 -32.5615 -12.4971 -11.9156
    -2.5953  -0.0581  -0.0408   0.8041   1.0259   1.3627   1.5545   4.1070
     4.1622   4.9997   5.4315   6.1778   6.6318   7.4359   8.8470   9.2953
    10.0619  10.3008  10.9108  11.7685  12.3207  12.5668  13.0615  13.5935
    13.8300  13.9632  14.9447  15.0530  16.1263  16.3601

     occupation numbers 
     1.0000   1.0000   1.0000   1.0000   1.0000   1.0000   1.0000   1.0000
     1.0000   1.0000   1.0000   1.0000   1.0000   1.0000   1.0000   1.0000
     1.0000   1.0000   1.0000   1.0000   1.0000   1.0000   1.0000   0.0000
     0.0000   0.0000   0.0000   0.0000   0.0000   0.0000   0.0000   0.0000
     0.0000   0.0000   0.0000   0.0000   0.0000   0.0000   0.0000   0.0000
     0.0000   0.0000   0.0000   0.0000   0.0000   0.0000

          k = 0.0000 0.1925 0.0000 ( 15997 PWs)   bands (ev):

   -58.5513 -33.9529 -33.9508 -33.9473 -33.9369 -33.9038 -33.9032 -33.8982
   -33.8910 -33.8834 -33.8747 -32.6970 -32.5901 -32.5631 -12.4056 -11.8512
    -2.4758  -0.3140  -0.1840   0.8917   0.9121   1.2815   1.5156   3.8656
     4.0079   4.8271   5.4864   6.2947   6.7700   7.5640   9.0119   9.4156
    10.0405  10.0908  10.8370  12.1502  12.5426  12.6337  12.9761  13.7783
    13.8080  13.8172  14.7759  14.9462  16.4618  16.7322

     occupation numbers 
     1.0000   1.0000   1.0000   1.0000   1.0000   1.0000   1.0000   1.0000
     1.0000   1.0000   1.0000   1.0000   1.0000   1.0000   1.0000   1.0000
     1.0000   1.0000   1.0000   1.0000   1.0000   1.0000   1.0000   0.0000
     0.0000   0.0000   0.0000   0.0000   0.0000   0.0000   0.0000   0.0000
     0.0000   0.0000   0.0000   0.0000   0.0000   0.0000   0.0000   0.0000
     0.0000   0.0000   0.0000   0.0000   0.0000   0.0000

          k = 0.0000 0.2245 0.0000 ( 15985 PWs)   bands (ev):

   -58.5506 -33.9519 -33.9493 -33.9492 -33.9353 -33.9044 -33.9036 -33.9003
   -33.8912 -33.8828 -33.8739 -32.6909 -32.6004 -32.5648 -12.3013 -11.7778
    -2.3432  -0.5952  -0.3522   0.7925   0.9908   1.1595   1.4587   3.6803
     3.9425   4.6507   5.5390   6.4252   6.9290   7.6977   9.0856   9.5191
     9.8395   9.9626  10.8248  12.3432  12.5680  12.9031  13.0296  13.7713
    13.8661  13.9916  14.5897  15.0097  16.1255  16.2421

     occupation numbers 
     1.0000   1.0000   1.0000   1.0000   1.0000   1.0000   1.0000   1.0000
     1.0000   1.0000   1.0000   1.0000   1.0000   1.0000   1.0000   1.0000
     1.0000   1.0000   1.0000   1.0000   1.0000   1.0000   1.0000   0.0000
     0.0000   0.0000   0.0000   0.0000   0.0000   0.0000   0.0000   0.0000
     0.0000   0.0000   0.0000   0.0000   0.0000   0.0000   0.0000   0.0000
     0.0000   0.0000   0.0000   0.0000   0.0000   0.0000

          k = 0.0000 0.2566 0.0000 ( 15989 PWs)   bands (ev):

   -58.5500 -33.9516 -33.9508 -33.9475 -33.9337 -33.9050 -33.9040 -33.9023
   -33.8913 -33.8822 -33.8729 -32.6845 -32.6113 -32.5667 -12.1860 -11.6972
    -2.2044  -0.8914  -0.5488   0.6713   1.0168   1.0991   1.3870   3.5549
     3.9574   4.4770   5.5869   6.5691   7.1071   7.8381   9.0586   9.4159
     9.7996   9.8019  10.8899  12.1094  12.6641  13.0321  13.4409  13.7425
    14.0777  14.2271  14.5868  15.0112  15.6654  15.7323

     occupation numbers 
     1.0000   1.0000   1.0000   1.0000   1.0000   1.0000   1.0000   1.0000
     1.0000   1.0000   1.0000   1.0000   1.0000   1.0000   1.0000   1.0000
     1.0000   1.0000   1.0000   1.0000   1.0000   1.0000   1.0000   0.0000
     0.0000   0.0000   0.0000   0.0000   0.0000   0.0000   0.0000   0.0000
     0.0000   0.0000   0.0000   0.0000   0.0000   0.0000   0.0000   0.0000
     0.0000   0.0000   0.0000   0.0000   0.0000   0.0000

          k = 0.0000 0.2887 0.0000 ( 15969 PWs)   bands (ev):

   -58.5493 -33.9542 -33.9496 -33.9457 -33.9320 -33.9056 -33.9044 -33.9042
   -33.8915 -33.8815 -33.8720 -32.6779 -32.6225 -32.5686 -12.0624 -11.6109
    -2.0722  -1.1864  -0.7733   0.5523   0.8764   1.2139   1.3089   3.4858
     4.0342   4.3110   5.6285   6.7246   7.3013   7.9824   8.9097   9.1602
     9.6344   9.9305  10.9937  11.7946  12.8051  12.9668  13.7413  13.8055
    14.4430  14.4747  14.7741  14.8175  15.2459  15.4561

     occupation numbers 
     1.0000   1.0000   1.0000   1.0000   1.0000   1.0000   1.0000   1.0000
     1.0000   1.0000   1.0000   1.0000   1.0000   1.0000   1.0000   1.0000
     1.0000   1.0000   1.0000   1.0000   1.0000   1.0000   1.0000   0.0000
     0.0000   0.0000   0.0000   0.0000   0.0000   0.0000   0.0000   0.0000
     0.0000   0.0000   0.0000   0.0000   0.0000   0.0000   0.0000   0.0000
     0.0000   0.0000   0.0000   0.0000   0.0000   0.0000

          k = 0.0000 0.3208 0.0000 ( 16006 PWs)   bands (ev):

   -58.5486 -33.9569 -33.9484 -33.9441 -33.9304 -33.9062 -33.9060 -33.9048
   -33.8916 -33.8810 -33.8710 -32.6714 -32.6337 -32.5705 -11.9334 -11.5214
    -1.9842  -1.4401  -1.0193   0.4386   0.7536   1.2367   1.3318   3.4636
     4.1541   4.1568   5.6632   6.8887   7.5062   8.1123   8.6429   8.9117
     9.5457  10.0645  11.0975  11.5094  12.7765  12.9249  13.7050  13.9938
    14.4555  14.6719  14.7190  15.1795  15.2088  15.2325

     occupation numbers 
     1.0000   1.0000   1.0000   1.0000   1.0000   1.0000   1.0000   1.0000
     1.0000   1.0000   1.0000   1.0000   1.0000   1.0000   1.0000   1.0000
     1.0000   1.0000   1.0000   1.0000   1.0000   1.0000   1.0000   0.0000
     0.0000   0.0000   0.0000   0.0000   0.0000   0.0000   0.0000   0.0000
     0.0000   0.0000   0.0000   0.0000   0.0000   0.0000   0.0000   0.0000
     0.0000   0.0000   0.0000   0.0000   0.0000   0.0000

          k = 0.0000 0.3528 0.0000 ( 15986 PWs)   bands (ev):

   -58.5479 -33.9596 -33.9472 -33.9425 -33.9287 -33.9075 -33.9067 -33.9052
   -33.8918 -33.8804 -33.8700 -32.6651 -32.6446 -32.5724 -11.8026 -11.4311
    -2.0491  -1.5419  -1.2753   0.3330   0.6544   1.1828   1.4492   3.4774
     4.0174   4.3011   5.6911   7.0550   7.7107   8.0749   8.4671   8.6993
     9.5337  10.1437  11.1825  11.3135  12.5398  12.9373  13.5255  13.8850
    14.2843  14.6594  14.9397  14.9900  15.4894  15.6763

     occupation numbers 
     1.0000   1.0000   1.0000   1.0000   1.0000   1.0000   1.0000   1.0000
     1.0000   1.0000   1.0000   1.0000   1.0000   1.0000   1.0000   1.0000
     1.0000   1.0000   1.0000   1.0000   1.0000   1.0000   1.0000   0.0000
     0.0000   0.0000   0.0000   0.0000   0.0000   0.0000   0.0000   0.0000
     0.0000   0.0000   0.0000   0.0000   0.0000   0.0000   0.0000   0.0000
     0.0000   0.0000   0.0000   0.0000   0.0000   0.0000

          k = 0.0000 0.3849 0.0000 ( 15976 PWs)   bands (ev):

   -58.5473 -33.9622 -33.9461 -33.9410 -33.9272 -33.9088 -33.9071 -33.9055
   -33.8919 -33.8800 -33.8691 -32.6592 -32.6548 -32.5742 -11.6740 -11.3430
    -2.2677  -1.5275  -1.4890   0.2375   0.5779   1.1566   1.5620   3.5169
     3.8953   4.4622   5.7127   7.2011   7.7546   7.8877   8.5500   8.5731
     9.5733  10.1167  11.2379  11.2621  12.2969  12.7336  13.3931  13.5446
    14.0179  14.7705  14.9841  15.1172  15.3475  16.0436

     occupation numbers 
     1.0000   1.0000   1.0000   1.0000   1.0000   1.0000   1.0000   1.0000
     1.0000   1.0000   1.0000   1.0000   1.0000   1.0000   1.0000   1.0000
     1.0000   1.0000   1.0000   1.0000   1.0000   1.0000   1.0000   0.0000
     0.0000   0.0000   0.0000   0.0000   0.0000   0.0000   0.0000   0.0000
     0.0000   0.0000   0.0000   0.0000   0.0000   0.0000   0.0000   0.0000
     0.0000   0.0000   0.0000   0.0000   0.0000   0.0000

          k = 0.0000 0.4170 0.0000 ( 15942 PWs)   bands (ev):

   -58.5467 -33.9647 -33.9450 -33.9398 -33.9258 -33.9100 -33.9074 -33.9058
   -33.8920 -33.8796 -33.8683 -32.6640 -32.6539 -32.5757 -11.5524 -11.2603
    -2.5136  -1.7631  -1.4045   0.1540   0.5209   1.1620   1.6660   3.5735
     3.7921   4.6261   5.7288   7.1629   7.5632   7.9786   8.5129   8.7416
     9.6507  10.0018  11.2525  11.3399  12.0682  12.3890  13.1686  13.3429
    13.6866  14.7216  15.0781  15.2422  15.3648  16.0182

     occupation numbers 
     1.0000   1.0000   1.0000   1.0000   1.0000   1.0000   1.0000   1.0000
     1.0000   1.0000   1.0000   1.0000   1.0000   1.0000   1.0000   1.0000
     1.0000   1.0000   1.0000   1.0000   1.0000   1.0000   1.0000   0.0000
     0.0000   0.0000   0.0000   0.0000   0.0000   0.0000   0.0000   0.0000
     0.0000   0.0000   0.0000   0.0000   0.0000   0.0000   0.0000   0.0000
     0.0000   0.0000   0.0000   0.0000   0.0000   0.0000

          k = 0.0000 0.4491 0.0000 ( 15946 PWs)   bands (ev):

   -58.5462 -33.9669 -33.9441 -33.9387 -33.9247 -33.9109 -33.9077 -33.9060
   -33.8921 -33.8793 -33.8675 -32.6719 -32.6493 -32.5771 -11.4427 -11.1863
    -2.7398  -1.9710  -1.3301   0.0839   0.4797   1.1963   1.7571   3.6403
     3.7086   4.7820   5.7403   6.8408   7.6655   7.9632   8.5859   8.9207
     9.7574   9.8831  11.2103  11.4603  11.8660  12.0532  12.8347  13.1107
    13.5936  14.5207  15.0569  15.3197  15.5702  15.9867

     occupation numbers 
     1.0000   1.0000   1.0000   1.0000   1.0000   1.0000   1.0000   1.0000
     1.0000   1.0000   1.0000   1.0000   1.0000   1.0000   1.0000   1.0000
     1.0000   1.0000   1.0000   1.0000   1.0000   1.0000   1.0000   0.0000
     0.0000   0.0000   0.0000   0.0000   0.0000   0.0000   0.0000   0.0000
     0.0000   0.0000   0.0000   0.0000   0.0000   0.0000   0.0000   0.0000
     0.0000   0.0000   0.0000   0.0000   0.0000   0.0000

          k = 0.0000 0.4811 0.0000 ( 15936 PWs)   bands (ev):

   -58.5458 -33.9687 -33.9433 -33.9379 -33.9237 -33.9116 -33.9078 -33.9062
   -33.8922 -33.8791 -33.8670 -32.6783 -32.6456 -32.5782 -11.3503 -11.1243
    -2.9289  -2.1420  -1.2746   0.0282   0.4510   1.2494   1.8317   3.6449
     3.7105   4.9191   5.7482   6.5072   7.8086   7.9145   8.6598   9.0956
     9.8396   9.8844  11.0962  11.5188  11.6994  11.7925  12.6162  12.7857
    13.6728  14.3157  14.9022  15.3629  15.5154  16.0022

     occupation numbers 
     1.0000   1.0000   1.0000   1.0000   1.0000   1.0000   1.0000   1.0000
     1.0000   1.0000   1.0000   1.0000   1.0000   1.0000   1.0000   1.0000
     1.0000   1.0000   1.0000   1.0000   1.0000   1.0000   1.0000   0.0000
     0.0000   0.0000   0.0000   0.0000   0.0000   0.0000   0.0000   0.0000
     0.0000   0.0000   0.0000   0.0000   0.0000   0.0000   0.0000   0.0000
     0.0000   0.0000   0.0000   0.0000   0.0000   0.0000

          k = 0.0000 0.5132 0.0000 ( 15910 PWs)   bands (ev):

   -58.5455 -33.9700 -33.9427 -33.9373 -33.9230 -33.9120 -33.9079 -33.9063
   -33.8923 -33.8789 -33.8665 -32.6830 -32.6429 -32.5790 -11.2799 -11.0775
    -3.0709  -2.2693  -1.2382  -0.0121   0.4323   1.3057   1.8868   3.6006
     3.7755   5.0268   5.7532   6.2331   7.8770   7.9338   8.6711   9.2499
     9.9022  10.0193  10.9274  11.4375  11.5752  11.6196  12.5159  12.5743
    13.7981  14.1419  14.6936  15.2528  15.3848  16.2125

     occupation numbers 
     1.0000   1.0000   1.0000   1.0000   1.0000   1.0000   1.0000   1.0000
     1.0000   1.0000   1.0000   1.0000   1.0000   1.0000   1.0000   1.0000
     1.0000   1.0000   1.0000   1.0000   1.0000   1.0000   1.0000   0.0000
     0.0000   0.0000   0.0000   0.0000   0.0000   0.0000   0.0000   0.0000
     0.0000   0.0000   0.0000   0.0000   0.0000   0.0000   0.0000   0.0000
     0.0000   0.0000   0.0000   0.0000   0.0000   0.0000

          k = 0.0000 0.5453 0.0000 ( 15894 PWs)   bands (ev):

   -58.5453 -33.9708 -33.9424 -33.9370 -33.9226 -33.9123 -33.9080 -33.9063
   -33.8923 -33.8788 -33.8663 -32.6859 -32.6413 -32.5795 -11.2359 -11.0483
    -3.1589  -2.3476  -1.2181  -0.0365   0.4218   1.3484   1.9206   3.5746
     3.8235   5.0958   5.7560   6.0514   7.8585   8.0196   8.6442   9.3610
    10.0182  10.1387  10.7681  11.2838  11.4986  11.5141  12.3429  12.6374
    13.9377  14.0157  14.4941  15.0647  15.3944  16.2816

     occupation numbers 
     1.0000   1.0000   1.0000   1.0000   1.0000   1.0000   1.0000   1.0000
     1.0000   1.0000   1.0000   1.0000   1.0000   1.0000   1.0000   1.0000
     1.0000   1.0000   1.0000   1.0000   1.0000   1.0000   1.0000   0.0000
     0.0000   0.0000   0.0000   0.0000   0.0000   0.0000   0.0000   0.0000
     0.0000   0.0000   0.0000   0.0000   0.0000   0.0000   0.0000   0.0000
     0.0000   0.0000   0.0000   0.0000   0.0000   0.0000

          k = 0.0000-0.5774 0.0000 ( 15910 PWs)   bands (ev):

   -58.5452 -33.9711 -33.9423 -33.9368 -33.9224 -33.9124 -33.9080 -33.9064
   -33.8923 -33.8788 -33.8662 -32.6869 -32.6407 -32.5797 -11.2209 -11.0384
    -3.1887  -2.3741  -1.2117  -0.0447   0.4184   1.3643   1.9320   3.5660
     3.8416   5.1196   5.7569   5.9874   7.8537   8.0503   8.6283   9.4024
    10.0795  10.1931  10.6980  11.2061  11.4727  11.4757  12.2840  12.6770
    13.9667  14.0200  14.3905  14.9978  15.3971  16.3068

     occupation numbers 
     1.0000   1.0000   1.0000   1.0000   1.0000   1.0000   1.0000   1.0000
     1.0000   1.0000   1.0000   1.0000   1.0000   1.0000   1.0000   1.0000
     1.0000   1.0000   1.0000   1.0000   1.0000   1.0000   1.0000   0.0000
     0.0000   0.0000   0.0000   0.0000   0.0000   0.0000   0.0000   0.0000
     0.0000   0.0000   0.0000   0.0000   0.0000   0.0000   0.0000   0.0000
     0.0000   0.0000   0.0000   0.0000   0.0000   0.0000

          k = 0.0278 0.0481 0.0000 ( 16055 PWs)   bands (ev):

   -58.5531 -33.9558 -33.9556 -33.9421 -33.9413 -33.9020 -33.9020 -33.8913
   -33.8906 -33.8854 -33.8772 -32.7146 -32.5605 -32.5581 -12.6883 -12.0506
    -2.8515   0.2794   0.5090   0.6189   1.2958   1.3678   1.5937   5.0234
     5.1053   5.2818   5.4336   5.8483   6.3321   7.0173   8.1444   8.9863
     9.5846  10.1050  11.2877  11.5138  12.3013  12.6015  12.9670  13.2193
    13.3677  14.1293  15.1547  15.4674  16.0174  16.1405

     occupation numbers 
     1.0000   1.0000   1.0000   1.0000   1.0000   1.0000   1.0000   1.0000
     1.0000   1.0000   1.0000   1.0000   1.0000   1.0000   1.0000   1.0000
     1.0000   1.0000   1.0000   1.0000   1.0000   1.0000   1.0000   0.0000
     0.0000   0.0000   0.0000   0.0000   0.0000   0.0000   0.0000   0.0000
     0.0000   0.0000   0.0000   0.0000   0.0000   0.0000   0.0000   0.0000
     0.0000   0.0000   0.0000   0.0000   0.0000   0.0000

          k = 0.0278 0.0802 0.0000 ( 16043 PWs)   bands (ev):

   -58.5529 -33.9554 -33.9549 -33.9427 -33.9407 -33.9023 -33.9021 -33.8923
   -33.8907 -33.8851 -33.8769 -32.7123 -32.5644 -32.5587 -12.6528 -12.0254
    -2.8033   0.2142   0.4002   0.6531   1.2359   1.3952   1.5910   4.7779
     4.8210   5.3132   5.3391   5.9439   6.3925   7.1355   8.3106   9.0612
     9.8751  10.0946  11.1876  11.6522  11.9427  12.6351  12.9913  13.2864
    13.5227  14.5944  15.0727  15.2034  15.7399  15.9375

     occupation numbers 
     1.0000   1.0000   1.0000   1.0000   1.0000   1.0000   1.0000   1.0000
     1.0000   1.0000   1.0000   1.0000   1.0000   1.0000   1.0000   1.0000
     1.0000   1.0000   1.0000   1.0000   1.0000   1.0000   1.0000   0.0000
     0.0000   0.0000   0.0000   0.0000   0.0000   0.0000   0.0000   0.0000
     0.0000   0.0000   0.0000   0.0000   0.0000   0.0000   0.0000   0.0000
     0.0000   0.0000   0.0000   0.0000   0.0000   0.0000

          k = 0.0278 0.1123 0.0000 ( 16025 PWs)   bands (ev):

   -58.5525 -33.9549 -33.9540 -33.9436 -33.9399 -33.9027 -33.9024 -33.8937
   -33.8908 -33.8847 -33.8764 -32.7089 -32.5700 -32.5597 -12.6001 -11.9882
    -2.7324   0.1251   0.2424   0.7036   1.1503   1.4150   1.5832   4.5007
     4.5180   5.2090   5.3559   6.0371   6.4758   7.2621   8.5336   9.1479
    10.0809  10.2059  11.0772  11.6529  11.8364  12.6710  13.0300  13.3835
    13.6903  14.5252  15.0315  15.2664  15.5967  15.9013

     occupation numbers 
     1.0000   1.0000   1.0000   1.0000   1.0000   1.0000   1.0000   1.0000
     1.0000   1.0000   1.0000   1.0000   1.0000   1.0000   1.0000   1.0000
     1.0000   1.0000   1.0000   1.0000   1.0000   1.0000   1.0000   0.0000
     0.0000   0.0000   0.0000   0.0000   0.0000   0.0000   0.0000   0.0000
     0.0000   0.0000   0.0000   0.0000   0.0000   0.0000   0.0000   0.0000
     0.0000   0.0000   0.0000   0.0000   0.0000   0.0000

          k = 0.0278 0.1443 0.0000 ( 16018 PWs)   bands (ev):

   -58.5521 -33.9542 -33.9529 -33.9449 -33.9388 -33.9031 -33.9026 -33.8954
   -33.8909 -33.8842 -33.8758 -32.7046 -32.5772 -32.5610 -12.5311 -11.9395
    -2.6402   0.0160   0.0413   0.7691   1.0438   1.4090   1.5663   4.2264
     4.2462   5.0538   5.4056   6.1364   6.5815   7.3876   8.7731   9.2487
    10.0677  10.3789  10.9710  11.6035  12.0370  12.7186  13.0508  13.5004
    13.8046  14.1914  14.7801  15.3952  15.7966  16.2004

     occupation numbers 
     1.0000   1.0000   1.0000   1.0000   1.0000   1.0000   1.0000   1.0000
     1.0000   1.0000   1.0000   1.0000   1.0000   1.0000   1.0000   1.0000
     1.0000   1.0000   1.0000   1.0000   1.0000   1.0000   1.0000   0.0000
     0.0000   0.0000   0.0000   0.0000   0.0000   0.0000   0.0000   0.0000
     0.0000   0.0000   0.0000   0.0000   0.0000   0.0000   0.0000   0.0000
     0.0000   0.0000   0.0000   0.0000   0.0000   0.0000

          k = 0.0278 0.1764 0.0000 ( 16010 PWs)   bands (ev):

   -58.5515 -33.9533 -33.9515 -33.9464 -33.9375 -33.9037 -33.9030 -33.8973
   -33.8910 -33.8837 -33.8751 -32.6995 -32.5859 -32.5625 -12.4468 -11.8802
    -2.5291  -0.1966  -0.1132   0.8480   0.9216   1.3627   1.5359   3.9677
     4.0545   4.8838   5.4579   6.2470   6.7091   7.5142   8.9790   9.3641
    10.0550  10.2573  10.8785  11.8948  12.2136  12.8008  12.9889  13.6094
    13.8140  14.0275  14.6272  15.2376  16.1903  16.6239

     occupation numbers 
     1.0000   1.0000   1.0000   1.0000   1.0000   1.0000   1.0000   1.0000
     1.0000   1.0000   1.0000   1.0000   1.0000   1.0000   1.0000   1.0000
     1.0000   1.0000   1.0000   1.0000   1.0000   1.0000   1.0000   0.0000
     0.0000   0.0000   0.0000   0.0000   0.0000   0.0000   0.0000   0.0000
     0.0000   0.0000   0.0000   0.0000   0.0000   0.0000   0.0000   0.0000
     0.0000   0.0000   0.0000   0.0000   0.0000   0.0000

          k = 0.0278 0.2085 0.0000 ( 15999 PWs)   bands (ev):

   -58.5509 -33.9524 -33.9499 -33.9483 -33.9361 -33.9043 -33.9033 -33.8993
   -33.8911 -33.8831 -33.8743 -32.6937 -32.5956 -32.5642 -12.3489 -11.8113
    -2.4027  -0.4638  -0.2654   0.7900   0.9380   1.2726   1.4892   3.7575
     3.9468   4.7078   5.5090   6.3712   6.8580   7.6458   9.1058   9.4856
    10.0045  10.0150  10.8256  12.2702  12.3549  12.8652  12.9025  13.7113
    13.7706  14.1088  14.5589  15.1770  16.1525  16.5480

     occupation numbers 
     1.0000   1.0000   1.0000   1.0000   1.0000   1.0000   1.0000   1.0000
     1.0000   1.0000   1.0000   1.0000   1.0000   1.0000   1.0000   1.0000
     1.0000   1.0000   1.0000   1.0000   1.0000   1.0000   1.0000   0.0000
     0.0000   0.0000   0.0000   0.0000   0.0000   0.0000   0.0000   0.0000
     0.0000   0.0000   0.0000   0.0000   0.0000   0.0000   0.0000   0.0000
     0.0000   0.0000   0.0000   0.0000   0.0000   0.0000

          k = 0.0278 0.2406 0.0000 ( 15972 PWs)   bands (ev):

   -58.5503 -33.9513 -33.9505 -33.9483 -33.9345 -33.9049 -33.9037 -33.9014
   -33.8913 -33.8824 -33.8734 -32.6874 -32.6061 -32.5660 -12.2390 -11.7342
    -2.2662  -0.7514  -0.4453   0.6562   1.0349   1.1501   1.4286   3.6043
     3.9243   4.5329   5.5560   6.5094   7.0270   7.7847   9.1314   9.5386
     9.8059   9.8961  10.8516  12.2374  12.4997  12.9382  13.0999  13.7687
    13.8604  14.3194  14.5655  15.1666  15.8327  15.9845

     occupation numbers 
     1.0000   1.0000   1.0000   1.0000   1.0000   1.0000   1.0000   1.0000
     1.0000   1.0000   1.0000   1.0000   1.0000   1.0000   1.0000   1.0000
     1.0000   1.0000   1.0000   1.0000   1.0000   1.0000   1.0000   0.0000
     0.0000   0.0000   0.0000   0.0000   0.0000   0.0000   0.0000   0.0000
     0.0000   0.0000   0.0000   0.0000   0.0000   0.0000   0.0000   0.0000
     0.0000   0.0000   0.0000   0.0000   0.0000   0.0000

          k = 0.0278 0.2726 0.0000 ( 15994 PWs)   bands (ev):

   -58.5496 -33.9529 -33.9501 -33.9466 -33.9329 -33.9056 -33.9040 -33.9033
   -33.8915 -33.8818 -33.8724 -32.6809 -32.6171 -32.5680 -12.1195 -11.6507
    -2.1286  -1.0469  -0.6552   0.5277   1.0145   1.1284   1.3678   3.5082
     3.9728   4.3650   5.5971   6.6605   7.2137   7.9304   9.0398   9.3426
     9.7255   9.8720  10.9429  11.9449  12.6410  12.9021  13.5361  13.7849
    14.0694  14.5787  14.7089  15.0209  15.4505  15.6102

     occupation numbers 
     1.0000   1.0000   1.0000   1.0000   1.0000   1.0000   1.0000   1.0000
     1.0000   1.0000   1.0000   1.0000   1.0000   1.0000   1.0000   1.0000
     1.0000   1.0000   1.0000   1.0000   1.0000   1.0000   1.0000   0.0000
     0.0000   0.0000   0.0000   0.0000   0.0000   0.0000   0.0000   0.0000
     0.0000   0.0000   0.0000   0.0000   0.0000   0.0000   0.0000   0.0000
     0.0000   0.0000   0.0000   0.0000   0.0000   0.0000

          k = 0.0278 0.3047 0.0000 ( 15988 PWs)   bands (ev):

   -58.5489 -33.9555 -33.9489 -33.9449 -33.9312 -33.9062 -33.9051 -33.9044
   -33.8916 -33.8812 -33.8714 -32.6744 -32.6283 -32.5699 -11.9931 -11.5627
    -2.0109  -1.3268  -0.8916   0.4106   0.8831   1.1781   1.3545   3.4628
     4.0736   4.2086   5.6310   6.8225   7.4142   8.0768   8.8092   9.0919
     9.6038  10.0101  11.0507  11.6433  12.6039  12.9687  13.7788  13.8679
    14.3241  14.6019  14.8023  15.0553  15.1869  15.4147

     occupation numbers 
     1.0000   1.0000   1.0000   1.0000   1.0000   1.0000   1.0000   1.0000
     1.0000   1.0000   1.0000   1.0000   1.0000   1.0000   1.0000   1.0000
     1.0000   1.0000   1.0000   1.0000   1.0000   1.0000   1.0000   0.0000
     0.0000   0.0000   0.0000   0.0000   0.0000   0.0000   0.0000   0.0000
     0.0000   0.0000   0.0000   0.0000   0.0000   0.0000   0.0000   0.0000
     0.0000   0.0000   0.0000   0.0000   0.0000   0.0000

          k = 0.0278 0.3368 0.0000 ( 15989 PWs)   bands (ev):

   -58.5482 -33.9582 -33.9477 -33.9432 -33.9296 -33.9068 -33.9068 -33.9047
   -33.8918 -33.8807 -33.8705 -32.6679 -32.6393 -32.5719 -11.8630 -11.4727
    -1.9844  -1.5175  -1.1445   0.3075   0.7660   1.1541   1.4280   3.4580
     4.0672   4.2092   5.6575   6.9912   7.6213   8.1718   8.5229   8.8647
     9.5632  10.1231  11.1451  11.3998  12.4324  13.0274  13.7093  13.9412
    14.3335  14.5201  14.8569  15.1163  15.3002  15.4205

     occupation numbers 
     1.0000   1.0000   1.0000   1.0000   1.0000   1.0000   1.0000   1.0000
     1.0000   1.0000   1.0000   1.0000   1.0000   1.0000   1.0000   1.0000
     1.0000   1.0000   1.0000   1.0000   1.0000   1.0000   1.0000   0.0000
     0.0000   0.0000   0.0000   0.0000   0.0000   0.0000   0.0000   0.0000
     0.0000   0.0000   0.0000   0.0000   0.0000   0.0000   0.0000   0.0000
     0.0000   0.0000   0.0000   0.0000   0.0000   0.0000

          k = 0.0278 0.3689 0.0000 ( 15953 PWs)   bands (ev):

   -58.5475 -33.9609 -33.9465 -33.9417 -33.9280 -33.9082 -33.9073 -33.9050
   -33.8919 -33.8802 -33.8695 -32.6618 -32.6498 -32.5737 -11.7331 -11.3833
    -2.1449  -1.5215  -1.4005   0.2181   0.6675   1.1225   1.5292   3.4831
     3.9434   4.3656   5.6766   7.1565   7.8194   7.9504   8.5176   8.6833
     9.5794  10.1529  11.2110  11.2750  12.2344  12.8881  13.5687  13.6988
    14.1713  14.6926  14.9015  14.9467  15.4448  15.7455

     occupation numbers 
     1.0000   1.0000   1.0000   1.0000   1.0000   1.0000   1.0000   1.0000
     1.0000   1.0000   1.0000   1.0000   1.0000   1.0000   1.0000   1.0000
     1.0000   1.0000   1.0000   1.0000   1.0000   1.0000   1.0000   0.0000
     0.0000   0.0000   0.0000   0.0000   0.0000   0.0000   0.0000   0.0000
     0.0000   0.0000   0.0000   0.0000   0.0000   0.0000   0.0000   0.0000
     0.0000   0.0000   0.0000   0.0000   0.0000   0.0000

          k = 0.0278 0.4009 0.0000 ( 15945 PWs)   bands (ev):

   -58.5469 -33.9635 -33.9454 -33.9404 -33.9266 -33.9094 -33.9077 -33.9052
   -33.8920 -33.8798 -33.8686 -32.6595 -32.6562 -32.5754 -11.6078 -11.2977
    -2.3863  -1.6460  -1.4424   0.1412   0.5883   1.1138   1.6305   3.5286
     3.8395   4.5309   5.6888   7.2574   7.6283   7.9724   8.5799   8.6758
     9.6358  10.0740  11.2376  11.2974  12.0359  12.5760  13.3432  13.4716
    13.8857  14.6935  15.0000  15.0314  15.5341  15.9144

     occupation numbers 
     1.0000   1.0000   1.0000   1.0000   1.0000   1.0000   1.0000   1.0000
     1.0000   1.0000   1.0000   1.0000   1.0000   1.0000   1.0000   1.0000
     1.0000   1.0000   1.0000   1.0000   1.0000   1.0000   1.0000   0.0000
     0.0000   0.0000   0.0000   0.0000   0.0000   0.0000   0.0000   0.0000
     0.0000   0.0000   0.0000   0.0000   0.0000   0.0000   0.0000   0.0000
     0.0000   0.0000   0.0000   0.0000   0.0000   0.0000

          k = 0.0278 0.4330 0.0000 ( 15940 PWs)   bands (ev):

   -58.5464 -33.9658 -33.9444 -33.9392 -33.9254 -33.9104 -33.9081 -33.9054
   -33.8921 -33.8794 -33.8679 -32.6680 -32.6513 -32.5769 -11.4918 -11.2191
    -2.6241  -1.8689  -1.3608   0.0762   0.5274   1.1333   1.7233   3.5847
     3.7585   4.6946   5.6947   7.0361   7.6233   8.0279   8.5918   8.8556
     9.7236   9.9461  11.2164  11.4082  11.8358  12.2442  12.9912  13.2745
    13.7055  14.5083  15.1014  15.1709  15.6389  15.9666

     occupation numbers 
     1.0000   1.0000   1.0000   1.0000   1.0000   1.0000   1.0000   1.0000
     1.0000   1.0000   1.0000   1.0000   1.0000   1.0000   1.0000   1.0000
     1.0000   1.0000   1.0000   1.0000   1.0000   1.0000   1.0000   0.0000
     0.0000   0.0000   0.0000   0.0000   0.0000   0.0000   0.0000   0.0000
     0.0000   0.0000   0.0000   0.0000   0.0000   0.0000   0.0000   0.0000
     0.0000   0.0000   0.0000   0.0000   0.0000   0.0000

          k = 0.0278 0.4651 0.0000 ( 15942 PWs)   bands (ev):

   -58.5460 -33.9678 -33.9436 -33.9383 -33.9243 -33.9111 -33.9083 -33.9055
   -33.8922 -33.8792 -33.8672 -32.6751 -32.6472 -32.5782 -11.3904 -11.1509
    -2.8321  -2.0591  -1.2958   0.0229   0.4826   1.1759   1.8028   3.6273
     3.7181   4.8463   5.6950   6.6884   7.7678   8.0074   8.6664   9.0361
     9.8354   9.8564  11.1445  11.5100  11.6173  11.9887  12.7107  12.9542
    13.7179  14.3190  15.0133  15.1839  15.7971  15.9852

     occupation numbers 
     1.0000   1.0000   1.0000   1.0000   1.0000   1.0000   1.0000   1.0000
     1.0000   1.0000   1.0000   1.0000   1.0000   1.0000   1.0000   1.0000
     1.0000   1.0000   1.0000   1.0000   1.0000   1.0000   1.0000   0.0000
     0.0000   0.0000   0.0000   0.0000   0.0000   0.0000   0.0000   0.0000
     0.0000   0.0000   0.0000   0.0000   0.0000   0.0000   0.0000   0.0000
     0.0000   0.0000   0.0000   0.0000   0.0000   0.0000

          k = 0.0278 0.4972 0.0000 ( 15915 PWs)   bands (ev):

   -58.5456 -33.9693 -33.9429 -33.9376 -33.9235 -33.9117 -33.9085 -33.9056
   -33.8923 -33.8790 -33.8667 -32.6807 -32.6440 -32.5792 -11.3087 -11.0964
    -2.9977  -2.2087  -1.2504  -0.0180   0.4515   1.2292   1.8657   3.6122
     3.7539   4.9755   5.6908   6.3783   7.9115   7.9757   8.7037   9.2024
     9.8664   9.9623  11.0184  11.4230  11.5007  11.8063  12.5814  12.6653
    13.8014  14.1610  14.8269  15.0289  15.7710  16.1551

     occupation numbers 
     1.0000   1.0000   1.0000   1.0000   1.0000   1.0000   1.0000   1.0000
     1.0000   1.0000   1.0000   1.0000   1.0000   1.0000   1.0000   1.0000
     1.0000   1.0000   1.0000   1.0000   1.0000   1.0000   1.0000   0.0000
     0.0000   0.0000   0.0000   0.0000   0.0000   0.0000   0.0000   0.0000
     0.0000   0.0000   0.0000   0.0000   0.0000   0.0000   0.0000   0.0000
     0.0000   0.0000   0.0000   0.0000   0.0000   0.0000

          k = 0.0278 0.5292 0.0000 ( 15908 PWs)   bands (ev):

   -58.5454 -33.9704 -33.9424 -33.9371 -33.9229 -33.9121 -33.9086 -33.9056
   -33.8923 -33.8789 -33.8664 -32.6845 -32.6418 -32.5799 -11.2513 -11.0582
    -3.1128  -2.3118  -1.2228  -0.0459   0.4320   1.2773   1.9094   3.5862
     3.8075   5.0711   5.6844   6.1459   7.9581   8.0248   8.6841   9.3351
     9.9671  10.0904  10.8499  11.3301  11.3669  11.6457  12.4666  12.6066
    13.9163  14.0446  14.6237  14.8340  15.7237  16.2377

     occupation numbers 
     1.0000   1.0000   1.0000   1.0000   1.0000   1.0000   1.0000   1.0000
     1.0000   1.0000   1.0000   1.0000   1.0000   1.0000   1.0000   1.0000
     1.0000   1.0000   1.0000   1.0000   1.0000   1.0000   1.0000   0.0000
     0.0000   0.0000   0.0000   0.0000   0.0000   0.0000   0.0000   0.0000
     0.0000   0.0000   0.0000   0.0000   0.0000   0.0000   0.0000   0.0000
     0.0000   0.0000   0.0000   0.0000   0.0000   0.0000

          k = 0.0278 0.5613 0.0000 ( 15899 PWs)   bands (ev):

   -58.5452 -33.9710 -33.9422 -33.9369 -33.9227 -33.9123 -33.9087 -33.9056
   -33.8924 -33.8788 -33.8662 -32.6864 -32.6407 -32.5802 -11.2216 -11.0386
    -3.1717  -2.3644  -1.2099  -0.0599   0.4226   1.3057   1.9319   3.5719
     3.8416   5.1226   5.6795   6.0200   7.9532   8.0880   8.6541   9.4103
    10.0701  10.1886  10.7140  11.2348  11.3327  11.5117  12.3712  12.6676
    13.9796  14.0240  14.4677  14.7083  15.7044  16.2781

     occupation numbers 
     1.0000   1.0000   1.0000   1.0000   1.0000   1.0000   1.0000   1.0000
     1.0000   1.0000   1.0000   1.0000   1.0000   1.0000   1.0000   1.0000
     1.0000   1.0000   1.0000   1.0000   1.0000   1.0000   1.0000   0.0000
     0.0000   0.0000   0.0000   0.0000   0.0000   0.0000   0.0000   0.0000
     0.0000   0.0000   0.0000   0.0000   0.0000   0.0000   0.0000   0.0000
     0.0000   0.0000   0.0000   0.0000   0.0000   0.0000

          k = 0.0556 0.0962 0.0000 ( 16021 PWs)   bands (ev):

   -58.5526 -33.9550 -33.9542 -33.9435 -33.9400 -33.9026 -33.9023 -33.8935
   -33.8908 -33.8848 -33.8765 -32.7095 -32.5690 -32.5596 -12.6088 -11.9944
    -2.7441   0.1410   0.2694   0.6940   1.1501   1.4271   1.5849   4.5390
     4.5665   5.2189   5.3475   6.0260   6.4628   7.2463   8.5049   9.1347
    10.0834  10.1789  11.1183  11.6601  11.7363  12.7192  13.0185  13.3630
    13.6623  14.6914  14.9936  15.0826  15.6695  15.9274

     occupation numbers 
     1.0000   1.0000   1.0000   1.0000   1.0000   1.0000   1.0000   1.0000
     1.0000   1.0000   1.0000   1.0000   1.0000   1.0000   1.0000   1.0000
     1.0000   1.0000   1.0000   1.0000   1.0000   1.0000   1.0000   0.0000
     0.0000   0.0000   0.0000   0.0000   0.0000   0.0000   0.0000   0.0000
     0.0000   0.0000   0.0000   0.0000   0.0000   0.0000   0.0000   0.0000
     0.0000   0.0000   0.0000   0.0000   0.0000   0.0000

          k = 0.0556 0.1283 0.0000 ( 16016 PWs)   bands (ev):

   -58.5522 -33.9543 -33.9532 -33.9445 -33.9391 -33.9031 -33.9025 -33.8950
   -33.8909 -33.8844 -33.8760 -32.7057 -32.5753 -32.5608 -12.5482 -11.9516
    -2.6628   0.0480   0.0937   0.7493   1.0333   1.4493   1.5719   4.2924
     4.2991   5.0659   5.3891   6.1185   6.5570   7.3659   8.7430   9.2253
    10.0715  10.4500  11.0395  11.4756  11.8107  12.8518  13.0303  13.4504
    13.7773  14.4273  14.6594  15.5173  15.6203  16.1513

     occupation numbers 
     1.0000   1.0000   1.0000   1.0000   1.0000   1.0000   1.0000   1.0000
     1.0000   1.0000   1.0000   1.0000   1.0000   1.0000   1.0000   1.0000
     1.0000   1.0000   1.0000   1.0000   1.0000   1.0000   1.0000   0.0000
     0.0000   0.0000   0.0000   0.0000   0.0000   0.0000   0.0000   0.0000
     0.0000   0.0000   0.0000   0.0000   0.0000   0.0000   0.0000   0.0000
     0.0000   0.0000   0.0000   0.0000   0.0000   0.0000

          k = 0.0556 0.1604 0.0000 ( 16011 PWs)   bands (ev):

   -58.5517 -33.9535 -33.9519 -33.9459 -33.9380 -33.9036 -33.9028 -33.8967
   -33.8910 -33.8838 -33.8753 -32.7010 -32.5831 -32.5623 -12.4718 -11.8977
[...]
     1.0000   1.0000   1.0000   1.0000   1.0000   1.0000   1.0000   0.0000
     0.0000   0.0000   0.0000   0.0000   0.0000   0.0000   0.0000   0.0000
     0.0000   0.0000   0.0000   0.0000   0.0000   0.0000   0.0000   0.0000
     0.0000   0.0000   0.0000   0.0000   0.0000   0.0000

          k = 0.2222 0.4170 0.0000 ( 15961 PWs)   bands (ev):

   -58.5456 -33.9648 -33.9417 -33.9385 -33.9293 -33.9141 -33.9084 -33.8997
   -33.8940 -33.8798 -33.8672 -32.6631 -32.6441 -32.5964 -11.3312 -11.1045
    -2.3478  -1.8154  -1.1644  -0.6449  -0.2059   0.7428   1.7993   3.4892
     3.8497   4.0897   5.4834   7.6146   8.2311   8.5645   8.9464   9.6936
    10.0879  11.2822  11.6678  11.7805  11.9681  12.1487  12.6314  13.2179
    13.3938  13.5333  14.1082  14.1441  14.5570  14.6616

     occupation numbers 
     1.0000   1.0000   1.0000   1.0000   1.0000   1.0000   1.0000   1.0000
     1.0000   1.0000   1.0000   1.0000   1.0000   1.0000   1.0000   1.0000
     1.0000   1.0000   1.0000   1.0000   1.0000   1.0000   1.0000   0.0000
     0.0000   0.0000   0.0000   0.0000   0.0000   0.0000   0.0000   0.0000
     0.0000   0.0000   0.0000   0.0000   0.0000   0.0000   0.0000   0.0000
     0.0000   0.0000   0.0000   0.0000   0.0000   0.0000

          k = 0.2222 0.4491 0.0000 ( 15951 PWs)   bands (ev):

   -58.5452 -33.9660 -33.9415 -33.9370 -33.9291 -33.9151 -33.9084 -33.8990
   -33.8943 -33.8798 -33.8667 -32.6665 -32.6406 -32.6002 -11.2440 -11.0448
    -2.4377  -1.9654  -1.1084  -0.6550  -0.3679   0.6283   1.8512   3.5300
     3.9176   4.1163   5.5382   7.3448   8.3563   8.6958   8.8650   9.9490
    10.1528  11.3750  11.6138  11.6476  12.0768  12.2617  12.3985  13.2517
    13.4014  13.4594  14.0146  14.0773  14.4614  14.5686

     occupation numbers 
     1.0000   1.0000   1.0000   1.0000   1.0000   1.0000   1.0000   1.0000
     1.0000   1.0000   1.0000   1.0000   1.0000   1.0000   1.0000   1.0000
     1.0000   1.0000   1.0000   1.0000   1.0000   1.0000   1.0000   0.0000
     0.0000   0.0000   0.0000   0.0000   0.0000   0.0000   0.0000   0.0000
     0.0000   0.0000   0.0000   0.0000   0.0000   0.0000   0.0000   0.0000
     0.0000   0.0000   0.0000   0.0000   0.0000   0.0000

          k = 0.2222 0.4811 0.0000 ( 15958 PWs)   bands (ev):

   -58.5449 -33.9670 -33.9414 -33.9358 -33.9290 -33.9159 -33.9085 -33.8984
   -33.8946 -33.8798 -33.8664 -32.6692 -32.6378 -32.6033 -11.1713 -10.9952
    -2.5098  -2.0891  -1.0850  -0.6526  -0.4825   0.5252   1.9116   3.5139
     4.0413   4.1350   5.5986   7.0615   8.3711   8.7909   8.9784  10.2240
    10.2428  11.3069  11.4718  11.5849  12.0603  12.3270  12.3488  12.9784
    13.2318  13.4408  14.1129  14.3611  14.4181  14.6485

     occupation numbers 
     1.0000   1.0000   1.0000   1.0000   1.0000   1.0000   1.0000   1.0000
     1.0000   1.0000   1.0000   1.0000   1.0000   1.0000   1.0000   1.0000
     1.0000   1.0000   1.0000   1.0000   1.0000   1.0000   1.0000   0.0000
     0.0000   0.0000   0.0000   0.0000   0.0000   0.0000   0.0000   0.0000
     0.0000   0.0000   0.0000   0.0000   0.0000   0.0000   0.0000   0.0000
     0.0000   0.0000   0.0000   0.0000   0.0000   0.0000

          k = 0.2222 0.5132 0.0000 ( 15952 PWs)   bands (ev):

   -58.5447 -33.9677 -33.9414 -33.9347 -33.9289 -33.9166 -33.9085 -33.8980
   -33.8948 -33.8799 -33.8661 -32.6710 -32.6357 -32.6056 -11.1165 -10.9579
    -2.5624  -2.1812  -1.0904  -0.6441  -0.5474   0.4428   1.9717   3.4723
     4.1466   4.1775   5.6531   6.8132   8.3304   8.8529   9.1997  10.3204
    10.4708  11.2358  11.2552  11.6070  11.9990  12.2517  12.2739  12.8155
    13.1698  13.3796  14.1855  14.2659  14.6863  14.7792

     occupation numbers 
     1.0000   1.0000   1.0000   1.0000   1.0000   1.0000   1.0000   1.0000
     1.0000   1.0000   1.0000   1.0000   1.0000   1.0000   1.0000   1.0000
     1.0000   1.0000   1.0000   1.0000   1.0000   1.0000   1.0000   0.0000
     0.0000   0.0000   0.0000   0.0000   0.0000   0.0000   0.0000   0.0000
     0.0000   0.0000   0.0000   0.0000   0.0000   0.0000   0.0000   0.0000
     0.0000   0.0000   0.0000   0.0000   0.0000   0.0000

          k = 0.2222 0.5453 0.0000 ( 15954 PWs)   bands (ev):

   -58.5446 -33.9681 -33.9414 -33.9341 -33.9288 -33.9170 -33.9084 -33.8977
   -33.8949 -33.8799 -33.8660 -32.6722 -32.6344 -32.6071 -11.0825 -10.9348
    -2.5945  -2.2379  -1.1068  -0.6356  -0.5756   0.3892   2.0174   3.4342
     4.1526   4.2833   5.6909   6.6399   8.2970   8.8878   9.4169  10.3531
    10.5613  11.1668  11.3122  11.6184  11.8884  12.0757  12.0894  12.8392
    13.2322  13.3325  14.1747  14.2622  14.6794  14.7317

     occupation numbers 
     1.0000   1.0000   1.0000   1.0000   1.0000   1.0000   1.0000   1.0000
     1.0000   1.0000   1.0000   1.0000   1.0000   1.0000   1.0000   1.0000
     1.0000   1.0000   1.0000   1.0000   1.0000   1.0000   1.0000   0.0000
     0.0000   0.0000   0.0000   0.0000   0.0000   0.0000   0.0000   0.0000
     0.0000   0.0000   0.0000   0.0000   0.0000   0.0000   0.0000   0.0000
     0.0000   0.0000   0.0000   0.0000   0.0000   0.0000

          k = 0.2222 0.5774 0.0000 ( 15944 PWs)   bands (ev):

   -58.5445 -33.9683 -33.9414 -33.9338 -33.9288 -33.9171 -33.9084 -33.8976
   -33.8950 -33.8799 -33.8659 -32.6725 -32.6340 -32.6076 -11.0709 -10.9269
    -2.6052  -2.2571  -1.1147  -0.6321  -0.5828   0.3705   2.0347   3.4191
     4.1545   4.3236   5.7044   6.5769   8.2852   8.8991   9.5175  10.3573
    10.5252  11.2443  11.3771  11.6196  11.7596  11.9595  12.0494  12.8715
    13.2727  13.3132  14.1364  14.3387  14.5538  14.7319

     occupation numbers 
     1.0000   1.0000   1.0000   1.0000   1.0000   1.0000   1.0000   1.0000
     1.0000   1.0000   1.0000   1.0000   1.0000   1.0000   1.0000   1.0000
     1.0000   1.0000   1.0000   1.0000   1.0000   1.0000   1.0000   0.0000
     0.0000   0.0000   0.0000   0.0000   0.0000   0.0000   0.0000   0.0000
     0.0000   0.0000   0.0000   0.0000   0.0000   0.0000   0.0000   0.0000
     0.0000   0.0000   0.0000   0.0000   0.0000   0.0000

          k = 0.2500 0.4330 0.0000 ( 15946 PWs)   bands (ev):

   -58.5452 -33.9658 -33.9416 -33.9370 -33.9293 -33.9152 -33.9083 -33.8989
   -33.8944 -33.8798 -33.8668 -32.6657 -32.6406 -32.6010 -11.2447 -11.0450
    -2.4013  -1.9469  -1.0977  -0.6797  -0.4351   0.6367   1.8481   3.5261
     3.9204   4.0827   5.5473   7.4428   8.2857   8.7045   8.8173   9.9484
    10.1770  11.3568  11.8253  11.8334  12.1263  12.2171  12.5638  13.1052
    13.4005  13.4278  13.9313  13.9840  14.3378  14.3506

     occupation numbers 
     1.0000   1.0000   1.0000   1.0000   1.0000   1.0000   1.0000   1.0000
     1.0000   1.0000   1.0000   1.0000   1.0000   1.0000   1.0000   1.0000
     1.0000   1.0000   1.0000   1.0000   1.0000   1.0000   1.0000   0.0000
     0.0000   0.0000   0.0000   0.0000   0.0000   0.0000   0.0000   0.0000
     0.0000   0.0000   0.0000   0.0000   0.0000   0.0000   0.0000   0.0000
     0.0000   0.0000   0.0000   0.0000   0.0000   0.0000

          k = 0.2500 0.4651 0.0000 ( 15950 PWs)   bands (ev):

   -58.5449 -33.9666 -33.9415 -33.9355 -33.9294 -33.9163 -33.9082 -33.8982
   -33.8948 -33.8799 -33.8664 -32.6675 -32.6377 -32.6051 -11.1702 -10.9938
    -2.4365  -2.0608  -1.0624  -0.6958  -0.6220   0.5346   1.9087   3.5047
     4.0513   4.0735   5.6214   7.2316   8.1705   8.8171   8.9620  10.2311
    10.2846  11.2119  11.7745  11.9833  12.1279  12.3130  12.5292  13.0489
    13.3858  13.4149  13.8370  13.8984  14.2271  14.2919

     occupation numbers 
     1.0000   1.0000   1.0000   1.0000   1.0000   1.0000   1.0000   1.0000
     1.0000   1.0000   1.0000   1.0000   1.0000   1.0000   1.0000   1.0000
     1.0000   1.0000   1.0000   1.0000   1.0000   1.0000   1.0000   0.0000
     0.0000   0.0000   0.0000   0.0000   0.0000   0.0000   0.0000   0.0000
     0.0000   0.0000   0.0000   0.0000   0.0000   0.0000   0.0000   0.0000
     0.0000   0.0000   0.0000   0.0000   0.0000   0.0000

          k = 0.2500 0.4972 0.0000 ( 15953 PWs)   bands (ev):

   -58.5447 -33.9673 -33.9416 -33.9342 -33.9294 -33.9171 -33.9081 -33.8975
   -33.8950 -33.8800 -33.8661 -32.6688 -32.6354 -32.6084 -11.1110 -10.9533
    -2.4557  -2.1513  -1.0775  -0.7365  -0.6995   0.4466   1.9746   3.4531
     4.0641   4.2034   5.6926   7.0100   8.0461   8.9028   9.2116  10.3667
    10.5117  11.1166  11.5123  12.0662  12.1327  12.3590  12.4788  12.9419
    13.2586  13.3060  13.8571  14.0449  14.3463  14.4385

     occupation numbers 
     1.0000   1.0000   1.0000   1.0000   1.0000   1.0000   1.0000   1.0000
     1.0000   1.0000   1.0000   1.0000   1.0000   1.0000   1.0000   1.0000
     1.0000   1.0000   1.0000   1.0000   1.0000   1.0000   1.0000   0.0000
     0.0000   0.0000   0.0000   0.0000   0.0000   0.0000   0.0000   0.0000
     0.0000   0.0000   0.0000   0.0000   0.0000   0.0000   0.0000   0.0000
     0.0000   0.0000   0.0000   0.0000   0.0000   0.0000

          k = 0.2500 0.5292 0.0000 ( 15958 PWs)   bands (ev):

   -58.5445 -33.9678 -33.9416 -33.9333 -33.9294 -33.9178 -33.9081 -33.8971
   -33.8952 -33.8801 -33.8660 -32.6696 -32.6339 -32.6109 -11.0699 -10.9251
    -2.4635  -2.2140  -1.1329  -0.7770  -0.6973   0.3816   2.0332   3.3992
     4.0566   4.3373   5.7484   6.8211   7.9663   8.9633   9.4727  10.3723
    10.7085  11.1659  11.3065  12.0355  12.1103  12.2828  12.3280  12.9244
    13.2133  13.2442  13.9512  13.9841  14.5892  14.6183

     occupation numbers 
     1.0000   1.0000   1.0000   1.0000   1.0000   1.0000   1.0000   1.0000
     1.0000   1.0000   1.0000   1.0000   1.0000   1.0000   1.0000   1.0000
     1.0000   1.0000   1.0000   1.0000   1.0000   1.0000   1.0000   0.0000
     0.0000   0.0000   0.0000   0.0000   0.0000   0.0000   0.0000   0.0000
     0.0000   0.0000   0.0000   0.0000   0.0000   0.0000   0.0000   0.0000
     0.0000   0.0000   0.0000   0.0000   0.0000   0.0000

          k = 0.2500 0.5613 0.0000 ( 15954 PWs)   bands (ev):

   -58.5444 -33.9680 -33.9416 -33.9328 -33.9294 -33.9182 -33.9080 -33.8968
   -33.8953 -33.8801 -33.8659 -32.6700 -32.6331 -32.6121 -11.0488 -10.9107
    -2.4654  -2.2461  -1.1764  -0.7847  -0.6944   0.3470   2.0685   3.3652
     4.0524   4.4173   5.7791   6.7106   7.9288   8.9959   9.6675  10.3437
    10.6872  11.2833  11.3644  11.9337  11.9437  12.1874  12.2906  12.9484
    13.2191  13.2478  13.9262  14.0496  14.6280  14.6325

     occupation numbers 
     1.0000   1.0000   1.0000   1.0000   1.0000   1.0000   1.0000   1.0000
     1.0000   1.0000   1.0000   1.0000   1.0000   1.0000   1.0000   1.0000
     1.0000   1.0000   1.0000   1.0000   1.0000   1.0000   1.0000   0.0000
     0.0000   0.0000   0.0000   0.0000   0.0000   0.0000   0.0000   0.0000
     0.0000   0.0000   0.0000   0.0000   0.0000   0.0000   0.0000   0.0000
     0.0000   0.0000   0.0000   0.0000   0.0000   0.0000

          k = 0.2778 0.4811 0.0000 ( 15946 PWs)   bands (ev):

   -58.5447 -33.9672 -33.9416 -33.9341 -33.9296 -33.9173 -33.9080 -33.8974
   -33.8951 -33.8800 -33.8661 -32.6680 -32.6353 -32.6095 -11.1092 -10.9517
    -2.4135  -2.1402  -1.0710  -0.8087  -0.7193   0.4481   1.9756   3.4463
     4.0363   4.2120   5.7062   7.1087   7.9178   8.9211   9.2148  10.3905
    10.5225  11.0513  11.7113  11.9812  12.2895  12.3839  12.6870  13.0073
    13.3343  13.4306  13.6776  13.8233  14.1562  14.2217

     occupation numbers 
     1.0000   1.0000   1.0000   1.0000   1.0000   1.0000   1.0000   1.0000
     1.0000   1.0000   1.0000   1.0000   1.0000   1.0000   1.0000   1.0000
     1.0000   1.0000   1.0000   1.0000   1.0000   1.0000   1.0000   0.0000
     0.0000   0.0000   0.0000   0.0000   0.0000   0.0000   0.0000   0.0000
     0.0000   0.0000   0.0000   0.0000   0.0000   0.0000   0.0000   0.0000
     0.0000   0.0000   0.0000   0.0000   0.0000   0.0000

          k = 0.2778 0.5132 0.0000 ( 15947 PWs)   bands (ev):

   -58.5445 -33.9676 -33.9417 -33.9328 -33.9298 -33.9182 -33.9079 -33.8968
   -33.8954 -33.8802 -33.8660 -32.6681 -32.6336 -32.6130 -11.0635 -10.9202
    -2.3763  -2.1999  -1.1781  -0.8682  -0.7308   0.3780   2.0421   3.3798
     4.0077   4.3648   5.7786   6.9783   7.7336   9.0088   9.4953  10.3841
    10.7835  11.0570  11.4867  11.9267  12.2437  12.5835  12.6376  12.9866
    13.2513  13.3139  13.7767  13.8865  14.3200  14.3263

     occupation numbers 
     1.0000   1.0000   1.0000   1.0000   1.0000   1.0000   1.0000   1.0000
     1.0000   1.0000   1.0000   1.0000   1.0000   1.0000   1.0000   1.0000
     1.0000   1.0000   1.0000   1.0000   1.0000   1.0000   1.0000   0.0000
     0.0000   0.0000   0.0000   0.0000   0.0000   0.0000   0.0000   0.0000
     0.0000   0.0000   0.0000   0.0000   0.0000   0.0000   0.0000   0.0000
     0.0000   0.0000   0.0000   0.0000   0.0000   0.0000

          k = 0.2778 0.5453 0.0000 ( 15936 PWs)   bands (ev):

   -58.5444 -33.9678 -33.9418 -33.9320 -33.9299 -33.9189 -33.9078 -33.8964
   -33.8956 -33.8803 -33.8658 -32.6680 -32.6325 -32.6152 -11.0352 -10.9007
    -2.3397  -2.2369  -1.2928  -0.8703  -0.7351   0.3323   2.0929   3.3272
     3.9898   4.4772   5.8273   6.8696   7.6326   9.0730   9.7493  10.3051
    10.8668  11.1828  11.4129  11.8924  12.1455  12.3419  12.7246  12.9856
    13.1846  13.3609  13.8668  13.8780  14.5145  14.5302

     occupation numbers 
     1.0000   1.0000   1.0000   1.0000   1.0000   1.0000   1.0000   1.0000
     1.0000   1.0000   1.0000   1.0000   1.0000   1.0000   1.0000   1.0000
     1.0000   1.0000   1.0000   1.0000   1.0000   1.0000   1.0000   0.0000
     0.0000   0.0000   0.0000   0.0000   0.0000   0.0000   0.0000   0.0000
     0.0000   0.0000   0.0000   0.0000   0.0000   0.0000   0.0000   0.0000
     0.0000   0.0000   0.0000   0.0000   0.0000   0.0000

          k = 0.2778 0.5774 0.0000 ( 15930 PWs)   bands (ev):

   -58.5443 -33.9679 -33.9418 -33.9317 -33.9299 -33.9191 -33.9077 -33.8963
   -33.8957 -33.8803 -33.8658 -32.6679 -32.6321 -32.6160 -11.0257 -10.8941
    -2.3238  -2.2494  -1.3379  -0.8682  -0.7361   0.3165   2.1122   3.3070
     3.9837   4.5191   5.8444   6.8265   7.6014   9.0976   9.8687  10.2658
    10.8095  11.2574  11.4973  11.8554  12.0868  12.2141  12.7199  12.9873
    13.1961  13.3926  13.8483  13.9216  14.5695  14.6028

     occupation numbers 
     1.0000   1.0000   1.0000   1.0000   1.0000   1.0000   1.0000   1.0000
     1.0000   1.0000   1.0000   1.0000   1.0000   1.0000   1.0000   1.0000
     1.0000   1.0000   1.0000   1.0000   1.0000   1.0000   1.0000   0.0000
     0.0000   0.0000   0.0000   0.0000   0.0000   0.0000   0.0000   0.0000
     0.0000   0.0000   0.0000   0.0000   0.0000   0.0000   0.0000   0.0000
     0.0000   0.0000   0.0000   0.0000   0.0000   0.0000

          k = 0.3056 0.5292 0.0000 ( 15952 PWs)   bands (ev):

   -58.5443 -33.9677 -33.9418 -33.9317 -33.9300 -33.9191 -33.9077 -33.8962
   -33.8957 -33.8803 -33.8658 -32.6672 -32.6323 -32.6164 -11.0307 -10.8973
    -2.2840  -2.2333  -1.3555  -0.8889  -0.7493   0.3274   2.1018   3.3135
     3.9688   4.4978   5.8439   6.9663   7.4896   9.1035   9.7741  10.2844
    10.9614  11.1476  11.4271  11.7947  12.2465  12.5227  12.8160  12.8708
    13.1966  13.5435  13.8742  13.9856  14.2969  14.3663

     occupation numbers 
     1.0000   1.0000   1.0000   1.0000   1.0000   1.0000   1.0000   1.0000
     1.0000   1.0000   1.0000   1.0000   1.0000   1.0000   1.0000   1.0000
     1.0000   1.0000   1.0000   1.0000   1.0000   1.0000   1.0000   0.0000
     0.0000   0.0000   0.0000   0.0000   0.0000   0.0000   0.0000   0.0000
     0.0000   0.0000   0.0000   0.0000   0.0000   0.0000   0.0000   0.0000
     0.0000   0.0000   0.0000   0.0000   0.0000   0.0000

          k = 0.3056 0.5613 0.0000 ( 15940 PWs)   bands (ev):

   -58.5443 -33.9678 -33.9419 -33.9311 -33.9301 -33.9196 -33.9075 -33.8960
   -33.8958 -33.8804 -33.8658 -32.6667 -32.6317 -32.6182 -11.0139 -10.8856
    -2.2503  -2.2116  -1.4828  -0.8882  -0.7578   0.3005   2.1379   3.2733
     3.9489   4.5742   5.8791   6.9684   7.3496   9.1655   9.9789  10.1934
    10.9449  11.2464  11.4184  11.8426  12.2564  12.3299  12.7406  12.7579
    13.4341  13.6268  13.9051  14.0803  14.3273  14.4832

     occupation numbers 
     1.0000   1.0000   1.0000   1.0000   1.0000   1.0000   1.0000   1.0000
     1.0000   1.0000   1.0000   1.0000   1.0000   1.0000   1.0000   1.0000
     1.0000   1.0000   1.0000   1.0000   1.0000   1.0000   1.0000   0.0000
     0.0000   0.0000   0.0000   0.0000   0.0000   0.0000   0.0000   0.0000
     0.0000   0.0000   0.0000   0.0000   0.0000   0.0000   0.0000   0.0000
     0.0000   0.0000   0.0000   0.0000   0.0000   0.0000

          k = 0.3333 0.5774 0.0000 ( 15942 PWs)   bands (ev):

   -58.5442 -33.9678 -33.9420 -33.9307 -33.9302 -33.9199 -33.9075 -33.8959
   -33.8958 -33.8804 -33.8658 -32.6662 -32.6314 -32.6193 -11.0067 -10.8805
    -2.2547  -2.1453  -1.5738  -0.8905  -0.7654   0.2895   2.1550   3.2531
     3.9352   4.6092   5.8972   7.1194   7.1347   9.2047  10.0762  10.1410
    10.9743  11.2755  11.3426  11.9338  12.2984  12.3816  12.5757  12.6386
    13.6776  13.7747  13.9253  14.0699  14.3476  14.4261

     occupation numbers 
     1.0000   1.0000   1.0000   1.0000   1.0000   1.0000   1.0000   1.0000
     1.0000   1.0000   1.0000   1.0000   1.0000   1.0000   1.0000   1.0000
     1.0000   1.0000   1.0000   1.0000   1.0000   1.0000   1.0000   0.0000
     0.0000   0.0000   0.0000   0.0000   0.0000   0.0000   0.0000   0.0000
     0.0000   0.0000   0.0000   0.0000   0.0000   0.0000   0.0000   0.0000
     0.0000   0.0000   0.0000   0.0000   0.0000   0.0000

     the Fermi energy is     2.1550 ev
     (compare with:     2.8223 eV, computed in scf)

     Writing all to output data dir ./outdir/MoTe2.save/
 
     init_run     :      0.66s CPU      0.48s WALL (       1 calls)
     electrons    :   2342.51s CPU   1277.86s WALL (       1 calls)

     Called by init_run:
     wfcinit      :      0.00s CPU      0.00s WALL (       1 calls)
     wfcinit:atom :      0.70s CPU      0.37s WALL (     127 calls)
     wfcinit:wfcr :     54.38s CPU     30.06s WALL (     127 calls)
     potinit      :      0.15s CPU      0.09s WALL (       1 calls)
     hinit0       :      0.39s CPU      0.25s WALL (       1 calls)

     Called by electrons:
     c_bands      :   2342.13s CPU   1277.64s WALL (       1 calls)
     v_of_rho     :      0.13s CPU      0.07s WALL (       1 calls)
     v_h          :      0.01s CPU      0.00s WALL (       1 calls)
     v_xc         :      0.12s CPU      0.07s WALL (       1 calls)

     Called by c_bands:
     init_us_2    :      0.94s CPU      0.48s WALL (     127 calls)
     init_us_2:cp :      0.94s CPU      0.48s WALL (     127 calls)
     cegterg      :   2266.84s CPU   1236.54s WALL (     450 calls)

     Called by sum_band:

     Called by *egterg:
     cdiaghg      :     48.57s CPU     25.45s WALL (    8127 calls)
     cegterg:over :    177.65s CPU     93.40s WALL (    8000 calls)
     cegterg:upda :    113.64s CPU     59.25s WALL (    8000 calls)
     cegterg:last :    190.34s CPU     99.14s WALL (    4635 calls)
     h_psi        :   1736.92s CPU    960.64s WALL (    8577 calls)
     g_psi        :     21.27s CPU     11.39s WALL (    8000 calls)

     Called by h_psi:
     h_psi:calbec :     98.84s CPU     51.96s WALL (    8577 calls)
     vloc_psi     :   1533.15s CPU    853.73s WALL (    8577 calls)
     add_vuspsi   :     98.88s CPU     51.49s WALL (    8577 calls)

     General routines
     calbec       :     98.79s CPU     51.93s WALL (    8577 calls)
     fft          :      0.08s CPU      0.05s WALL (      11 calls)
     fftw         :   1421.71s CPU    778.42s WALL (  405122 calls)
     davcio       :      0.93s CPU      1.01s WALL (     254 calls)
 
     Parallel routines
 
     PWSCF        :  39m 9.02s CPU  21m23.50s WALL

 
   This run was terminated on:   4:41:30   9Jan2024            

=------------------------------------------------------------------------------=
   JOB DONE.
=------------------------------------------------------------------------------=
