export BASH_ENV=/etc/profile.d/modules.sh

     Program PWSCF v.7.2 starts on  9Jan2024 at  4: 6:44 

     This program is part of the open-source Quantum ESPRESSO suite
     for quantum simulation of materials; please cite
         "P. Giannozzi et al., J. Phys.:Condens. Matter 21 395502 (2009);
         "P. Giannozzi et al., J. Phys.:Condens. Matter 29 465901 (2017);
         "P. Giannozzi et al., J. Chem. Phys. 152 154105 (2020);
          URL http://www.quantum-espresso.org", 
     in publications or presentations arising from this work. More details at
     http://www.quantum-espresso.org/quote

     Parallel version (MPI & OpenMP), running on       4 processor cores
     Number of MPI processes:                 2
     Threads/MPI process:                     2

     MPI processes distributed on     2 nodes
     53383 MiB available memory on the printing compute node when the environment starts
 
     Reading input from scf.in

     Current dimensions of program PWSCF are:
     Max number of different atomic species (ntypx) = 10
     Max number of k-points (npk) =  40000
     Max angular momentum in pseudopotentials (lmaxx) =  4
 
     R & G space division:  proc/nbgrp/npool/nimage =       2
     Subspace diagonalization in iterative solution of the eigenvalue problem:
     a serial algorithm will be used

 
     Parallelization info
     --------------------
     sticks:   dense  smooth     PW     G-vecs:    dense   smooth      PW
     Min         501     501    141                63787    63787    9755
     Max         502     502    142                63792    63792    9770
     Sum        1003    1003    283               127579   127579   19525
 
     Using Slab Decomposition
 


     bravais-lattice index     =            4
     lattice parameter (alat)  =       6.7094  a.u.
     unit-cell volume          =    1321.0864 (a.u.)^3
     number of atoms/cell      =            3
     number of atomic types    =            2
     number of electrons       =        46.00
     number of Kohn-Sham states=           28
     kinetic-energy cutoff     =      80.0000  Ry
     charge density cutoff     =     320.0000  Ry
     scf convergence threshold =      6.0E-10
     mixing beta               =       0.7000
     number of iterations used =            8  plain     mixing
     Exchange-correlation= PBE
                           (   1   4   3   4   0   0   0)

     celldm(1)=   6.709444  celldm(2)=   0.000000  celldm(3)=   5.050578
     celldm(4)=   0.000000  celldm(5)=   0.000000  celldm(6)=   0.000000

     crystal axes: (cart. coord. in units of alat)
               a(1) = (   1.000000   0.000000   0.000000 )  
               a(2) = (  -0.500000   0.866025   0.000000 )  
               a(3) = (   0.000000   0.000000   5.050578 )  

     reciprocal axes: (cart. coord. in units 2 pi/alat)
               b(1) = (  1.000000  0.577350  0.000000 )  
               b(2) = (  0.000000  1.154701  0.000000 )  
               b(3) = (  0.000000  0.000000  0.197997 )  


     PseudoPot. # 1 for Mo read from file:
     ./Mo.upf
     MD5 check sum: 7ca7a9feba7bf08d88d14bc7fbf60c1e
     Pseudo is Norm-conserving + core correction, Zval = 14.0
     Generated using ONCVPSP code by D. R. Hamann
     Using radial grid of 1640 points,  6 beta functions with: 
                l(1) =   0
                l(2) =   0
                l(3) =   1
                l(4) =   1
                l(5) =   2
                l(6) =   2

     PseudoPot. # 2 for Te read from file:
     ./Te.upf
     MD5 check sum: 5809bc2f3532353a97804e96cbe9e3f7
     Pseudo is Norm-conserving + core correction, Zval = 16.0
     Generated using ONCVPSP code by D. R. Hamann
     Using radial grid of 1294 points,  9 beta functions with: 
                l(1) =   0
                l(2) =   0
                l(3) =   0
                l(4) =   1
                l(5) =   1
                l(6) =   2
                l(7) =   2
                l(8) =   3
                l(9) =   3

     atomic species   valence    mass     pseudopotential
        Mo            14.00    95.96000     Mo( 1.00)
        Te            16.00   127.60000     Te( 1.00)

     12 Sym. Ops. (no inversion) found


                                    s                        frac. trans.

      isym =  1     identity                                     

 cryst.   s( 1) = (     1          0          0      )
                  (     0          1          0      )
                  (     0          0          1      )

 cart.    s( 1) = (  1.0000000  0.0000000  0.0000000 )
                  (  0.0000000  1.0000000  0.0000000 )
                  (  0.0000000  0.0000000  1.0000000 )


      isym =  2     180 deg rotation - cart. axis [0,1,0]        

 cryst.   s( 2) = (    -1          0          0      )
                  (     1          1          0      )
                  (     0          0         -1      )

 cart.    s( 2) = ( -1.0000000  0.0000000  0.0000000 )
                  (  0.0000000  1.0000000  0.0000000 )
                  (  0.0000000  0.0000000 -1.0000000 )


      isym =  3     120 deg rotation - cryst. axis [0,0,1]       

 cryst.   s( 3) = (     0          1          0      )
                  (    -1         -1          0      )
                  (     0          0          1      )

 cart.    s( 3) = ( -0.5000000 -0.8660254  0.0000000 )
                  (  0.8660254 -0.5000000  0.0000000 )
                  (  0.0000000  0.0000000  1.0000000 )


      isym =  4     120 deg rotation - cryst. axis [0,0,-1]      

 cryst.   s( 4) = (    -1         -1          0      )
                  (     1          0          0      )
                  (     0          0          1      )

 cart.    s( 4) = ( -0.5000000  0.8660254  0.0000000 )
                  ( -0.8660254 -0.5000000  0.0000000 )
                  (  0.0000000  0.0000000  1.0000000 )


      isym =  5     180 deg rotation - cryst. axis [1,-1,0]      

 cryst.   s( 5) = (     0         -1          0      )
                  (    -1          0          0      )
                  (     0          0         -1      )

 cart.    s( 5) = (  0.5000000 -0.8660254  0.0000000 )
                  ( -0.8660254 -0.5000000  0.0000000 )
                  (  0.0000000  0.0000000 -1.0000000 )


      isym =  6     180 deg rotation - cryst. axis [2,1,0]       

 cryst.   s( 6) = (     1          1          0      )
                  (     0         -1          0      )
                  (     0          0         -1      )

 cart.    s( 6) = (  0.5000000  0.8660254  0.0000000 )
                  (  0.8660254 -0.5000000  0.0000000 )
                  (  0.0000000  0.0000000 -1.0000000 )


      isym =  7     inv. 180 deg rotation - cart. axis [0,0,1]   

 cryst.   s( 7) = (     1          0          0      )
                  (     0          1          0      )
                  (     0          0         -1      )

 cart.    s( 7) = (  1.0000000  0.0000000  0.0000000 )
                  (  0.0000000  1.0000000  0.0000000 )
                  (  0.0000000  0.0000000 -1.0000000 )


      isym =  8     inv. 180 deg rotation - cart. axis [1,0,0]   

 cryst.   s( 8) = (    -1          0          0      )
                  (     1          1          0      )
                  (     0          0          1      )

 cart.    s( 8) = ( -1.0000000  0.0000000  0.0000000 )
                  (  0.0000000  1.0000000  0.0000000 )
                  (  0.0000000  0.0000000  1.0000000 )


      isym =  9     inv.  60 deg rotation - cryst. axis [0,0,1]  

 cryst.   s( 9) = (    -1         -1          0      )
                  (     1          0          0      )
                  (     0          0         -1      )

 cart.    s( 9) = ( -0.5000000  0.8660254  0.0000000 )
                  ( -0.8660254 -0.5000000  0.0000000 )
                  (  0.0000000  0.0000000 -1.0000000 )


      isym = 10     inv.  60 deg rotation - cryst. axis [0,0,-1] 

 cryst.   s(10) = (     0          1          0      )
                  (    -1         -1          0      )
                  (     0          0         -1      )

 cart.    s(10) = ( -0.5000000 -0.8660254  0.0000000 )
                  (  0.8660254 -0.5000000  0.0000000 )
                  (  0.0000000  0.0000000 -1.0000000 )


      isym = 11     inv. 180 deg rotation - cryst. axis [0,1,0]  

 cryst.   s(11) = (     1          1          0      )
                  (     0         -1          0      )
                  (     0          0          1      )

 cart.    s(11) = (  0.5000000  0.8660254  0.0000000 )
                  (  0.8660254 -0.5000000  0.0000000 )
                  (  0.0000000  0.0000000  1.0000000 )


      isym = 12     inv. 180 deg rotation - cryst. axis [1,1,0]  

 cryst.   s(12) = (     0         -1          0      )
                  (    -1          0          0      )
                  (     0          0          1      )

 cart.    s(12) = (  0.5000000 -0.8660254  0.0000000 )
                  ( -0.8660254 -0.5000000  0.0000000 )
                  (  0.0000000  0.0000000  1.0000000 )


     point group D_3h (-62m)
     there are  6 classes
     the character table:

       E     2C3   3C2   s_h   2S3   3s_v 
A'_1   1.00  1.00  1.00  1.00  1.00  1.00
A'_2   1.00  1.00 -1.00  1.00  1.00 -1.00
E'     2.00 -1.00  0.00  2.00 -1.00  0.00
A''1   1.00  1.00  1.00 -1.00 -1.00 -1.00
A''2   1.00  1.00 -1.00 -1.00 -1.00  1.00
E''    2.00 -1.00  0.00 -2.00  1.00  0.00

     the symmetry operations in each class and the name of the first element:

     E        1
          identity                                               
     2C3      3    4
          120 deg rotation - cryst. axis [0,0,1]                 
     3C2      2    6    5
          180 deg rotation - cart. axis [0,1,0]                  
     s_h      7
          inv. 180 deg rotation - cart. axis [0,0,1]             
     2S3      9   10
          inv.  60 deg rotation - cryst. axis [0,0,1]            
     3s_v     8   11   12
          inv. 180 deg rotation - cart. axis [1,0,0]             

   Cartesian axes

     site n.     atom                  positions (alat units)
         1           Te  tau(   1) = (  -0.0000000   0.5773503   4.5377065  )
         2           Te  tau(   2) = (  -0.0000000   0.5773503   0.5128712  )
         3           Mo  tau(   3) = (   0.0000000   0.0000000   0.0000000  )

   Crystallographic axes

     site n.     atom                  positions (cryst. coord.)
         1           Te  tau(   1) = (  0.3333333  0.6666667  0.8984530  )
         2           Te  tau(   2) = (  0.3333333  0.6666667  0.1015470  )
         3           Mo  tau(   3) = (  0.0000000  0.0000000  0.0000000  )

     number of k points=    61  Marzari-Vanderbilt smearing, width (Ry)=  0.0147
                       cart. coord. in units 2pi/alat
        k(    1) = (   0.0000000   0.0000000   0.0000000), wk =   0.0034722
        k(    2) = (   0.0000000   0.0481125   0.0000000), wk =   0.0208333
        k(    3) = (   0.0000000   0.0962250   0.0000000), wk =   0.0208333
        k(    4) = (   0.0000000   0.1443376   0.0000000), wk =   0.0208333
        k(    5) = (   0.0000000   0.1924501   0.0000000), wk =   0.0208333
        k(    6) = (   0.0000000   0.2405626   0.0000000), wk =   0.0208333
        k(    7) = (   0.0000000   0.2886751   0.0000000), wk =   0.0208333
        k(    8) = (   0.0000000   0.3367877   0.0000000), wk =   0.0208333
        k(    9) = (   0.0000000   0.3849002   0.0000000), wk =   0.0208333
        k(   10) = (   0.0000000   0.4330127   0.0000000), wk =   0.0208333
        k(   11) = (   0.0000000   0.4811252   0.0000000), wk =   0.0208333
        k(   12) = (   0.0000000   0.5292377   0.0000000), wk =   0.0208333
        k(   13) = (   0.0000000  -0.5773503   0.0000000), wk =   0.0104167
        k(   14) = (   0.0416667   0.0721688   0.0000000), wk =   0.0208333
        k(   15) = (   0.0416667   0.1202813   0.0000000), wk =   0.0416667
        k(   16) = (   0.0416667   0.1683938   0.0000000), wk =   0.0416667
        k(   17) = (   0.0416667   0.2165064   0.0000000), wk =   0.0416667
        k(   18) = (   0.0416667   0.2646189   0.0000000), wk =   0.0416667
        k(   19) = (   0.0416667   0.3127314   0.0000000), wk =   0.0416667
        k(   20) = (   0.0416667   0.3608439   0.0000000), wk =   0.0416667
        k(   21) = (   0.0416667   0.4089564   0.0000000), wk =   0.0416667
        k(   22) = (   0.0416667   0.4570690   0.0000000), wk =   0.0416667
        k(   23) = (   0.0416667   0.5051815   0.0000000), wk =   0.0416667
        k(   24) = (   0.0416667   0.5532940   0.0000000), wk =   0.0416667
        k(   25) = (   0.0833333   0.1443376   0.0000000), wk =   0.0208333
        k(   26) = (   0.0833333   0.1924501   0.0000000), wk =   0.0416667
        k(   27) = (   0.0833333   0.2405626   0.0000000), wk =   0.0416667
        k(   28) = (   0.0833333   0.2886751   0.0000000), wk =   0.0416667
        k(   29) = (   0.0833333   0.3367877   0.0000000), wk =   0.0416667
        k(   30) = (   0.0833333   0.3849002   0.0000000), wk =   0.0416667
        k(   31) = (   0.0833333   0.4330127   0.0000000), wk =   0.0416667
        k(   32) = (   0.0833333   0.4811252   0.0000000), wk =   0.0416667
        k(   33) = (   0.0833333   0.5292377   0.0000000), wk =   0.0416667
        k(   34) = (   0.0833333   0.5773503   0.0000000), wk =   0.0208333
        k(   35) = (   0.1250000   0.2165064   0.0000000), wk =   0.0208333
        k(   36) = (   0.1250000   0.2646189   0.0000000), wk =   0.0416667
        k(   37) = (   0.1250000   0.3127314   0.0000000), wk =   0.0416667
        k(   38) = (   0.1250000   0.3608439   0.0000000), wk =   0.0416667
        k(   39) = (   0.1250000   0.4089564   0.0000000), wk =   0.0416667
        k(   40) = (   0.1250000   0.4570690   0.0000000), wk =   0.0416667
        k(   41) = (   0.1250000   0.5051815   0.0000000), wk =   0.0416667
        k(   42) = (   0.1250000   0.5532940   0.0000000), wk =   0.0416667
        k(   43) = (   0.1666667   0.2886751   0.0000000), wk =   0.0208333
        k(   44) = (   0.1666667   0.3367877   0.0000000), wk =   0.0416667
        k(   45) = (   0.1666667   0.3849002   0.0000000), wk =   0.0416667
        k(   46) = (   0.1666667   0.4330127   0.0000000), wk =   0.0416667
        k(   47) = (   0.1666667   0.4811252   0.0000000), wk =   0.0416667
        k(   48) = (   0.1666667   0.5292377   0.0000000), wk =   0.0416667
        k(   49) = (   0.1666667   0.5773503   0.0000000), wk =   0.0208333
        k(   50) = (   0.2083333   0.3608439   0.0000000), wk =   0.0208333
        k(   51) = (   0.2083333   0.4089564   0.0000000), wk =   0.0416667
        k(   52) = (   0.2083333   0.4570690   0.0000000), wk =   0.0416667
        k(   53) = (   0.2083333   0.5051815   0.0000000), wk =   0.0416667
        k(   54) = (   0.2083333   0.5532940   0.0000000), wk =   0.0416667
        k(   55) = (   0.2500000   0.4330127   0.0000000), wk =   0.0208333
        k(   56) = (   0.2500000   0.4811252   0.0000000), wk =   0.0416667
        k(   57) = (   0.2500000   0.5292377   0.0000000), wk =   0.0416667
        k(   58) = (   0.2500000   0.5773503   0.0000000), wk =   0.0208333
        k(   59) = (   0.2916667   0.5051815   0.0000000), wk =   0.0208333
        k(   60) = (   0.2916667   0.5532940   0.0000000), wk =   0.0416667
        k(   61) = (   0.3333333   0.5773503   0.0000000), wk =   0.0069444

                       cryst. coord.
        k(    1) = (   0.0000000   0.0000000   0.0000000), wk =   0.0034722
        k(    2) = (   0.0000000   0.0416667   0.0000000), wk =   0.0208333
        k(    3) = (   0.0000000   0.0833333   0.0000000), wk =   0.0208333
        k(    4) = (   0.0000000   0.1250000   0.0000000), wk =   0.0208333
        k(    5) = (   0.0000000   0.1666667   0.0000000), wk =   0.0208333
        k(    6) = (   0.0000000   0.2083333   0.0000000), wk =   0.0208333
        k(    7) = (   0.0000000   0.2500000   0.0000000), wk =   0.0208333
        k(    8) = (   0.0000000   0.2916667   0.0000000), wk =   0.0208333
        k(    9) = (   0.0000000   0.3333333   0.0000000), wk =   0.0208333
        k(   10) = (   0.0000000   0.3750000   0.0000000), wk =   0.0208333
        k(   11) = (   0.0000000   0.4166667   0.0000000), wk =   0.0208333
        k(   12) = (   0.0000000   0.4583333   0.0000000), wk =   0.0208333
        k(   13) = (   0.0000000  -0.5000000   0.0000000), wk =   0.0104167
        k(   14) = (   0.0416667   0.0416667   0.0000000), wk =   0.0208333
        k(   15) = (   0.0416667   0.0833333   0.0000000), wk =   0.0416667
        k(   16) = (   0.0416667   0.1250000   0.0000000), wk =   0.0416667
        k(   17) = (   0.0416667   0.1666667   0.0000000), wk =   0.0416667
        k(   18) = (   0.0416667   0.2083333   0.0000000), wk =   0.0416667
        k(   19) = (   0.0416667   0.2500000   0.0000000), wk =   0.0416667
        k(   20) = (   0.0416667   0.2916667   0.0000000), wk =   0.0416667
        k(   21) = (   0.0416667   0.3333333   0.0000000), wk =   0.0416667
        k(   22) = (   0.0416667   0.3750000   0.0000000), wk =   0.0416667
        k(   23) = (   0.0416667   0.4166667   0.0000000), wk =   0.0416667
        k(   24) = (   0.0416667   0.4583333   0.0000000), wk =   0.0416667
        k(   25) = (   0.0833333   0.0833333   0.0000000), wk =   0.0208333
        k(   26) = (   0.0833333   0.1250000   0.0000000), wk =   0.0416667
        k(   27) = (   0.0833333   0.1666667   0.0000000), wk =   0.0416667
        k(   28) = (   0.0833333   0.2083333   0.0000000), wk =   0.0416667
        k(   29) = (   0.0833333   0.2500000   0.0000000), wk =   0.0416667
        k(   30) = (   0.0833333   0.2916667   0.0000000), wk =   0.0416667
        k(   31) = (   0.0833333   0.3333333   0.0000000), wk =   0.0416667
        k(   32) = (   0.0833333   0.3750000   0.0000000), wk =   0.0416667
        k(   33) = (   0.0833333   0.4166667   0.0000000), wk =   0.0416667
        k(   34) = (   0.0833333   0.4583333   0.0000000), wk =   0.0208333
        k(   35) = (   0.1250000   0.1250000   0.0000000), wk =   0.0208333
        k(   36) = (   0.1250000   0.1666667   0.0000000), wk =   0.0416667
        k(   37) = (   0.1250000   0.2083333   0.0000000), wk =   0.0416667
        k(   38) = (   0.1250000   0.2500000   0.0000000), wk =   0.0416667
        k(   39) = (   0.1250000   0.2916667   0.0000000), wk =   0.0416667
        k(   40) = (   0.1250000   0.3333333   0.0000000), wk =   0.0416667
        k(   41) = (   0.1250000   0.3750000   0.0000000), wk =   0.0416667
        k(   42) = (   0.1250000   0.4166667   0.0000000), wk =   0.0416667
        k(   43) = (   0.1666667   0.1666667   0.0000000), wk =   0.0208333
        k(   44) = (   0.1666667   0.2083333   0.0000000), wk =   0.0416667
        k(   45) = (   0.1666667   0.2500000   0.0000000), wk =   0.0416667
        k(   46) = (   0.1666667   0.2916667   0.0000000), wk =   0.0416667
        k(   47) = (   0.1666667   0.3333333   0.0000000), wk =   0.0416667
        k(   48) = (   0.1666667   0.3750000   0.0000000), wk =   0.0416667
        k(   49) = (   0.1666667   0.4166667   0.0000000), wk =   0.0208333
        k(   50) = (   0.2083333   0.2083333   0.0000000), wk =   0.0208333
        k(   51) = (   0.2083333   0.2500000   0.0000000), wk =   0.0416667
        k(   52) = (   0.2083333   0.2916667   0.0000000), wk =   0.0416667
        k(   53) = (   0.2083333   0.3333333   0.0000000), wk =   0.0416667
        k(   54) = (   0.2083333   0.3750000   0.0000000), wk =   0.0416667
        k(   55) = (   0.2500000   0.2500000   0.0000000), wk =   0.0208333
        k(   56) = (   0.2500000   0.2916667   0.0000000), wk =   0.0416667
        k(   57) = (   0.2500000   0.3333333   0.0000000), wk =   0.0416667
        k(   58) = (   0.2500000   0.3750000   0.0000000), wk =   0.0208333
        k(   59) = (   0.2916667   0.2916667   0.0000000), wk =   0.0208333
        k(   60) = (   0.2916667   0.3333333   0.0000000), wk =   0.0416667
        k(   61) = (   0.3333333   0.3333333   0.0000000), wk =   0.0069444

     Dense  grid:   127579 G-vectors     FFT dimensions: (  40,  40, 200)

     Dynamical RAM for                 wfc:       3.41 MB

     Dynamical RAM for     wfc (w. buffer):     211.41 MB

     Dynamical RAM for           str. fact:       1.95 MB

     Dynamical RAM for           local pot:       0.00 MB

     Dynamical RAM for          nlocal pot:      10.23 MB

     Dynamical RAM for                qrad:       8.61 MB

     Dynamical RAM for          rho,v,vnew:       6.58 MB

     Dynamical RAM for               rhoin:       2.19 MB

     Dynamical RAM for            rho*nmix:      15.57 MB

     Dynamical RAM for           G-vectors:       4.14 MB

     Dynamical RAM for          h,s,v(r/c):       0.14 MB

     Dynamical RAM for          <psi|beta>:       0.04 MB

     Dynamical RAM for                 psi:       6.82 MB

     Dynamical RAM for                hpsi:       6.82 MB

     Dynamical RAM for      wfcinit/wfcrot:       6.84 MB

     Estimated static dynamical RAM per process >     254.14 MB

     Estimated max dynamical RAM per process >     283.53 MB

     Estimated total dynamical RAM >     567.06 MB

     Initial potential from superposition of free atoms

     starting charge      45.9982, renormalised to      46.0000

     negative rho (up, down):  3.558E-05 0.000E+00
     Starting wfcs are   28 randomized atomic wfcs

     total cpu time spent up to now is       10.4 secs

     Self-consistent Calculation

     iteration #  1     ecut=    80.00 Ry     beta= 0.70
     Davidson diagonalization with overlap

---- Real-time Memory Report at c_bands before calling an iterative solver
           399 MiB given to the printing process from OS
             0 MiB allocation reported by mallinfo(arena+hblkhd)
         53032 MiB available memory on the node where the printing process lives
------------------
     ethr =  1.00E-02,  avg # of iterations =  5.0

     Threshold (ethr) on eigenvalues was too large:
     Diagonalizing with lowered threshold

     Davidson diagonalization with overlap

---- Real-time Memory Report at c_bands before calling an iterative solver
           435 MiB given to the printing process from OS
             0 MiB allocation reported by mallinfo(arena+hblkhd)
         53010 MiB available memory on the node where the printing process lives
------------------
     ethr =  3.89E-04,  avg # of iterations =  2.4

     negative rho (up, down):  3.918E-06 0.000E+00

     total cpu time spent up to now is       76.9 secs

     total energy              =    -560.55432362 Ry
     estimated scf accuracy    <       0.20758811 Ry

     iteration #  2     ecut=    80.00 Ry     beta= 0.70
     Davidson diagonalization with overlap

---- Real-time Memory Report at c_bands before calling an iterative solver
           460 MiB given to the printing process from OS
             0 MiB allocation reported by mallinfo(arena+hblkhd)
         52976 MiB available memory on the node where the printing process lives
------------------
     ethr =  4.51E-04,  avg # of iterations =  4.3
     Minimization algorithm failed to find Fermi energy: reverting to bisection
     Possible cause: smearing is larger than the electronic band-gap.

     negative rho (up, down):  2.755E-06 0.000E+00

     total cpu time spent up to now is      112.0 secs

     total energy              =    -560.38355791 Ry
     estimated scf accuracy    <       1.42375350 Ry

     iteration #  3     ecut=    80.00 Ry     beta= 0.70
     Davidson diagonalization with overlap

---- Real-time Memory Report at c_bands before calling an iterative solver
           482 MiB given to the printing process from OS
             0 MiB allocation reported by mallinfo(arena+hblkhd)
         52947 MiB available memory on the node where the printing process lives
------------------
     ethr =  4.51E-04,  avg # of iterations =  3.7

     negative rho (up, down):  6.611E-08 0.000E+00

     total cpu time spent up to now is      145.2 secs

     WARNING: integrated charge=    46.00055740, expected=    46.00000000

     total energy              =    -560.59366867 Ry
     estimated scf accuracy    <       0.48722300 Ry

     iteration #  4     ecut=    80.00 Ry     beta= 0.70
     Davidson diagonalization with overlap

---- Real-time Memory Report at c_bands before calling an iterative solver
           486 MiB given to the printing process from OS
             0 MiB allocation reported by mallinfo(arena+hblkhd)
         52940 MiB available memory on the node where the printing process lives
------------------
     ethr =  4.51E-04,  avg # of iterations =  2.3

     total cpu time spent up to now is      174.7 secs

     WARNING: integrated charge=    46.00017201, expected=    46.00000000

     total energy              =    -560.64018644 Ry
     estimated scf accuracy    <       0.00450298 Ry

     iteration #  5     ecut=    80.00 Ry     beta= 0.70
     Davidson diagonalization with overlap

---- Real-time Memory Report at c_bands before calling an iterative solver
           490 MiB given to the printing process from OS
             0 MiB allocation reported by mallinfo(arena+hblkhd)
         52939 MiB available memory on the node where the printing process lives
------------------
     ethr =  9.79E-06,  avg # of iterations =  4.7

     total cpu time spent up to now is      210.3 secs

     WARNING: integrated charge=    46.00012157, expected=    46.00000000

     total energy              =    -560.64127652 Ry
     estimated scf accuracy    <       0.00035934 Ry

     iteration #  6     ecut=    80.00 Ry     beta= 0.70
     Davidson diagonalization with overlap

---- Real-time Memory Report at c_bands before calling an iterative solver
           502 MiB given to the printing process from OS
             0 MiB allocation reported by mallinfo(arena+hblkhd)
         52928 MiB available memory on the node where the printing process lives
------------------
     ethr =  7.81E-07,  avg # of iterations =  2.7

     total cpu time spent up to now is      243.0 secs

     WARNING: integrated charge=    46.00003842, expected=    46.00000000

     total energy              =    -560.64136073 Ry
     estimated scf accuracy    <       0.00000964 Ry

     iteration #  7     ecut=    80.00 Ry     beta= 0.70
     Davidson diagonalization with overlap

---- Real-time Memory Report at c_bands before calling an iterative solver
           510 MiB given to the printing process from OS
             0 MiB allocation reported by mallinfo(arena+hblkhd)
         52920 MiB available memory on the node where the printing process lives
------------------
     ethr =  2.10E-08,  avg # of iterations =  4.2

     total cpu time spent up to now is      278.1 secs

     WARNING: integrated charge=    46.00001850, expected=    46.00000000

     total energy              =    -560.64136373 Ry
     estimated scf accuracy    <       0.00000340 Ry

     iteration #  8     ecut=    80.00 Ry     beta= 0.70
     Davidson diagonalization with overlap

---- Real-time Memory Report at c_bands before calling an iterative solver
           518 MiB given to the printing process from OS
             0 MiB allocation reported by mallinfo(arena+hblkhd)
         52913 MiB available memory on the node where the printing process lives
------------------
     ethr =  7.38E-09,  avg # of iterations =  2.0

     total cpu time spent up to now is      311.0 secs

     WARNING: integrated charge=    46.00001540, expected=    46.00000000

     total energy              =    -560.64136455 Ry
     estimated scf accuracy    <       0.00000041 Ry

     iteration #  9     ecut=    80.00 Ry     beta= 0.70
     Davidson diagonalization with overlap

---- Real-time Memory Report at c_bands before calling an iterative solver
           522 MiB given to the printing process from OS
             0 MiB allocation reported by mallinfo(arena+hblkhd)
         52907 MiB available memory on the node where the printing process lives
------------------
     ethr =  8.88E-10,  avg # of iterations =  2.0

     total cpu time spent up to now is      339.0 secs

     WARNING: integrated charge=    46.00001576, expected=    46.00000000

     total energy              =    -560.64136459 Ry
     estimated scf accuracy    <       0.00000001 Ry

     iteration # 10     ecut=    80.00 Ry     beta= 0.70
     Davidson diagonalization with overlap

---- Real-time Memory Report at c_bands before calling an iterative solver
           524 MiB given to the printing process from OS
             0 MiB allocation reported by mallinfo(arena+hblkhd)
         52906 MiB available memory on the node where the printing process lives
------------------
     ethr =  3.16E-11,  avg # of iterations =  4.2

     total cpu time spent up to now is      376.7 secs

     WARNING: integrated charge=    46.00001562, expected=    46.00000000

     total energy              =    -560.64136459 Ry
     estimated scf accuracy    <       0.00000002 Ry

     iteration # 11     ecut=    80.00 Ry     beta= 0.70
     Davidson diagonalization with overlap

---- Real-time Memory Report at c_bands before calling an iterative solver
           524 MiB given to the printing process from OS
             0 MiB allocation reported by mallinfo(arena+hblkhd)
         52906 MiB available memory on the node where the printing process lives
------------------
     ethr =  3.16E-11,  avg # of iterations =  2.0

     total cpu time spent up to now is      407.2 secs

     End of self-consistent calculation

          k = 0.0000 0.0000 0.0000 ( 16021 PWs)   bands (ev):

   -58.5530 -33.9561 -33.9561 -33.9417 -33.9417 -33.9018 -33.9018 -33.8906
   -33.8906 -33.8856 -33.8775 -32.7161 -32.5573 -32.5573 -12.7152 -12.0696
    -2.8880   0.3328   0.5930   0.5930   1.3405   1.3405   1.5946   5.2562
     5.2562   5.5073   5.5073   5.6304

     occupation numbers 
     1.0000   1.0000   1.0000   1.0000   1.0000   1.0000   1.0000   1.0000
     1.0000   1.0000   1.0000   1.0000   1.0000   1.0000   1.0000   1.0000
     1.0000   1.0000   1.0000   1.0000   1.0000   1.0000   1.0000   0.0000
     0.0000   0.0000   0.0000   0.0000

          k = 0.0000 0.0481 0.0000 ( 16055 PWs)   bands (ev):

   -58.5529 -33.9559 -33.9557 -33.9420 -33.9414 -33.9020 -33.9019 -33.8912
   -33.8906 -33.8855 -33.8773 -32.7148 -32.5595 -32.5577 -12.6950 -12.0553
    -2.8605   0.2923   0.5298   0.6127   1.3083   1.3605   1.5941   5.0769
     5.1737   5.2757   5.4529   5.8208

     occupation numbers 
     1.0000   1.0000   1.0000   1.0000   1.0000   1.0000   1.0000   1.0000
     1.0000   1.0000   1.0000   1.0000   1.0000   1.0000   1.0000   1.0000
     1.0000   1.0000   1.0000   1.0000   1.0000   1.0000   1.0000   0.0000
     0.0000   0.0000   0.0000   0.0000

          k = 0.0000 0.0962 0.0000 ( 16041 PWs)   bands (ev):

   -58.5525 -33.9552 -33.9546 -33.9431 -33.9404 -33.9024 -33.9022 -33.8928
   -33.8907 -33.8850 -33.8767 -32.7109 -32.5660 -32.5588 -12.6351 -12.0129
    -2.7795   0.1828   0.3463   0.6709   1.2169   1.3948   1.5889   4.6761
     4.7054   5.3017   5.3292   5.9765

     occupation numbers 
     1.0000   1.0000   1.0000   1.0000   1.0000   1.0000   1.0000   1.0000
     1.0000   1.0000   1.0000   1.0000   1.0000   1.0000   1.0000   1.0000
     1.0000   1.0000   1.0000   1.0000   1.0000   1.0000   1.0000   0.0000
     0.0000   0.0000   0.0000   0.0000

          k = 0.0000 0.1443 0.0000 ( 16017 PWs)   bands (ev):

   -58.5518 -33.9543 -33.9530 -33.9448 -33.9389 -33.9030 -33.9027 -33.8953
   -33.8909 -33.8843 -33.8759 -32.7047 -32.5764 -32.5605 -12.5374 -11.9440
    -2.6487   0.0226   0.0579   0.7654   1.0793   1.3856   1.5679   4.2454
     4.2705   5.0824   5.4043   6.1242

     occupation numbers 
     1.0000   1.0000   1.0000   1.0000   1.0000   1.0000   1.0000   1.0000
     1.0000   1.0000   1.0000   1.0000   1.0000   1.0000   1.0000   1.0000
     1.0000   1.0000   1.0000   1.0000   1.0000   1.0000   1.0000   0.0000
     0.0000   0.0000   0.0000   0.0000

          k = 0.0000 0.1925 0.0000 ( 15997 PWs)   bands (ev):

   -58.5510 -33.9530 -33.9508 -33.9473 -33.9369 -33.9038 -33.9032 -33.8982
   -33.8911 -33.8834 -33.8748 -32.6967 -32.5898 -32.5628 -12.4056 -11.8512
    -2.4757  -0.3138  -0.1840   0.8918   0.9122   1.2816   1.5157   3.8657
     4.0080   4.8271   5.4865   6.2947

     occupation numbers 
     1.0000   1.0000   1.0000   1.0000   1.0000   1.0000   1.0000   1.0000
     1.0000   1.0000   1.0000   1.0000   1.0000   1.0000   1.0000   1.0000
     1.0000   1.0000   1.0000   1.0000   1.0000   1.0000   1.0000   0.0000
     0.0000   0.0000   0.0000   0.0000

          k = 0.0000 0.2406 0.0000 ( 15981 PWs)   bands (ev):

   -58.5500 -33.9514 -33.9505 -33.9483 -33.9345 -33.9047 -33.9038 -33.9013
   -33.8913 -33.8825 -33.8734 -32.6875 -32.6055 -32.5655 -12.2448 -11.7383
    -2.2739  -0.7421  -0.4468   0.7319   1.0441   1.0893   1.4245   3.6103
     3.9411   4.5632   5.5638   6.4956

     occupation numbers 
     1.0000   1.0000   1.0000   1.0000   1.0000   1.0000   1.0000   1.0000
     1.0000   1.0000   1.0000   1.0000   1.0000   1.0000   1.0000   1.0000
     1.0000   1.0000   1.0000   1.0000   1.0000   1.0000   1.0000   0.0000
     0.0000   0.0000   0.0000   0.0000

          k = 0.0000 0.2887 0.0000 ( 15969 PWs)   bands (ev):

   -58.5490 -33.9542 -33.9496 -33.9458 -33.9320 -33.9056 -33.9044 -33.9042
   -33.8915 -33.8815 -33.8720 -32.6777 -32.6222 -32.5683 -12.0624 -11.6109
    -2.0721  -1.1863  -0.7732   0.5524   0.8764   1.2140   1.3090   3.4859
     4.0343   4.3111   5.6286   6.7246

     occupation numbers 
     1.0000   1.0000   1.0000   1.0000   1.0000   1.0000   1.0000   1.0000
     1.0000   1.0000   1.0000   1.0000   1.0000   1.0000   1.0000   1.0000
     1.0000   1.0000   1.0000   1.0000   1.0000   1.0000   1.0000   0.0000
     0.0000   0.0000   0.0000   0.0000

          k = 0.0000 0.3368 0.0000 ( 15990 PWs)   bands (ev):

   -58.5479 -33.9582 -33.9478 -33.9433 -33.9295 -33.9068 -33.9065 -33.9050
   -33.8917 -33.8807 -33.8705 -32.6679 -32.6389 -32.5712 -11.8679 -11.4762
    -1.9899  -1.5177  -1.1469   0.3848   0.7011   1.2069   1.3909   3.4668
     4.0852   4.2252   5.6780   6.9722

     occupation numbers 
     1.0000   1.0000   1.0000   1.0000   1.0000   1.0000   1.0000   1.0000
     1.0000   1.0000   1.0000   1.0000   1.0000   1.0000   1.0000   1.0000
     1.0000   1.0000   1.0000   1.0000   1.0000   1.0000   1.0000   0.0000
     0.0000   0.0000   0.0000   0.0000

          k = 0.0000 0.3849 0.0000 ( 15976 PWs)   bands (ev):

   -58.5470 -33.9623 -33.9461 -33.9410 -33.9272 -33.9088 -33.9071 -33.9055
   -33.8919 -33.8800 -33.8691 -32.6589 -32.6545 -32.5739 -11.6740 -11.3430
    -2.2676  -1.5275  -1.4889   0.2376   0.5780   1.1567   1.5621   3.5170
     3.8955   4.4623   5.7127   7.2012

     occupation numbers 
     1.0000   1.0000   1.0000   1.0000   1.0000   1.0000   1.0000   1.0000
     1.0000   1.0000   1.0000   1.0000   1.0000   1.0000   1.0000   1.0000
     1.0000   1.0000   1.0000   1.0000   1.0000   1.0000   1.0000   0.0000
     0.0000   0.0000   0.0000   0.0000

          k = 0.0000 0.4330 0.0000 ( 15956 PWs)   bands (ev):

   -58.5461 -33.9658 -33.9445 -33.9392 -33.9252 -33.9104 -33.9076 -33.9059
   -33.8921 -33.8795 -33.8679 -32.6678 -32.6512 -32.5762 -11.4957 -11.2220
    -2.6304  -1.8711  -1.3651   0.1173   0.4986   1.1762   1.7135   3.6062
     3.7480   4.7058   5.7351   7.0135

     occupation numbers 
     1.0000   1.0000   1.0000   1.0000   1.0000   1.0000   1.0000   1.0000
     1.0000   1.0000   1.0000   1.0000   1.0000   1.0000   1.0000   1.0000
     1.0000   1.0000   1.0000   1.0000   1.0000   1.0000   1.0000   0.0000
     0.0000   0.0000   0.0000   0.0000

          k = 0.0000 0.4811 0.0000 ( 15936 PWs)   bands (ev):

   -58.5455 -33.9687 -33.9433 -33.9379 -33.9237 -33.9116 -33.9078 -33.9062
   -33.8922 -33.8791 -33.8670 -32.6780 -32.6454 -32.5779 -11.3503 -11.1243
    -2.9289  -2.1420  -1.2746   0.0283   0.4511   1.2495   1.8317   3.6451
     3.7107   4.9192   5.7483   6.5073

     occupation numbers 
     1.0000   1.0000   1.0000   1.0000   1.0000   1.0000   1.0000   1.0000
     1.0000   1.0000   1.0000   1.0000   1.0000   1.0000   1.0000   1.0000
     1.0000   1.0000   1.0000   1.0000   1.0000   1.0000   1.0000   0.0000
     0.0000   0.0000   0.0000   0.0000

          k = 0.0000 0.5292 0.0000 ( 15914 PWs)   bands (ev):

   -58.5451 -33.9705 -33.9426 -33.9371 -33.9228 -33.9122 -33.9079 -33.9063
   -33.8923 -33.8789 -33.8664 -32.6844 -32.6417 -32.5790 -11.2544 -11.0606
    -3.1220  -2.3148  -1.2262  -0.0262   0.4262   1.3298   1.9065   3.5856
     3.8026   5.0667   5.7550   6.1290

     occupation numbers 
     1.0000   1.0000   1.0000   1.0000   1.0000   1.0000   1.0000   1.0000
     1.0000   1.0000   1.0000   1.0000   1.0000   1.0000   1.0000   1.0000
     1.0000   1.0000   1.0000   1.0000   1.0000   1.0000   1.0000   0.0000
     0.0000   0.0000   0.0000   0.0000

          k = 0.0000-0.5774 0.0000 ( 15910 PWs)   bands (ev):

   -58.5449 -33.9711 -33.9423 -33.9369 -33.9224 -33.9124 -33.9080 -33.9064
   -33.8923 -33.8788 -33.8662 -32.6866 -32.6405 -32.5794 -11.2208 -11.0384
    -3.1887  -2.3741  -1.2116  -0.0446   0.4185   1.3644   1.9320   3.5663
     3.8417   5.1197   5.7570   5.9874

     occupation numbers 
     1.0000   1.0000   1.0000   1.0000   1.0000   1.0000   1.0000   1.0000
     1.0000   1.0000   1.0000   1.0000   1.0000   1.0000   1.0000   1.0000
     1.0000   1.0000   1.0000   1.0000   1.0000   1.0000   1.0000   0.0000
     0.0000   0.0000   0.0000   0.0000

          k = 0.0417 0.0722 0.0000 ( 16047 PWs)   bands (ev):

   -58.5526 -33.9554 -33.9550 -33.9427 -33.9407 -33.9023 -33.9021 -33.8923
   -33.8907 -33.8852 -33.8769 -32.7122 -32.5638 -32.5584 -12.6550 -12.0270
    -2.8063   0.2183   0.4072   0.6510   1.2373   1.3964   1.5913   4.7915
     4.8372   5.3111   5.3429   5.9398

     occupation numbers 
     1.0000   1.0000   1.0000   1.0000   1.0000   1.0000   1.0000   1.0000
     1.0000   1.0000   1.0000   1.0000   1.0000   1.0000   1.0000   1.0000
     1.0000   1.0000   1.0000   1.0000   1.0000   1.0000   1.0000   0.0000
     0.0000   0.0000   0.0000   0.0000

          k = 0.0417 0.1203 0.0000 ( 16020 PWs)   bands (ev):

   -58.5521 -33.9546 -33.9536 -33.9441 -33.9395 -33.9029 -33.9024 -33.8943
   -33.8908 -33.8846 -33.8762 -32.7071 -32.5722 -32.5599 -12.5762 -11.9713
    -2.7002   0.0887   0.1735   0.7251   1.0975   1.4319   1.5786   4.3981
     4.4106   5.1427   5.3720   6.0757

     occupation numbers 
     1.0000   1.0000   1.0000   1.0000   1.0000   1.0000   1.0000   1.0000
     1.0000   1.0000   1.0000   1.0000   1.0000   1.0000   1.0000   1.0000
     1.0000   1.0000   1.0000   1.0000   1.0000   1.0000   1.0000   0.0000
     0.0000   0.0000   0.0000   0.0000

          k = 0.0417 0.1684 0.0000 ( 16020 PWs)   bands (ev):

   -58.5513 -33.9535 -33.9518 -33.9461 -33.9378 -33.9037 -33.9029 -33.8970
   -33.8910 -33.8838 -33.8752 -32.7001 -32.5840 -32.5621 -12.4614 -11.8904
    -2.5479  -0.1528  -0.0847   0.8306   0.9076   1.4076   1.5432   4.0113
     4.0710   4.8928   5.4447   6.2327

     occupation numbers 
     1.0000   1.0000   1.0000   1.0000   1.0000   1.0000   1.0000   1.0000
     1.0000   1.0000   1.0000   1.0000   1.0000   1.0000   1.0000   1.0000
     1.0000   1.0000   1.0000   1.0000   1.0000   1.0000   1.0000   0.0000
     0.0000   0.0000   0.0000   0.0000

          k = 0.0417 0.2165 0.0000 ( 15994 PWs)   bands (ev):

   -58.5504 -33.9520 -33.9495 -33.9489 -33.9357 -33.9046 -33.9033 -33.9000
   -33.8912 -33.8829 -33.8740 -32.6914 -32.5984 -32.5647 -12.3150 -11.7874
    -2.3592  -0.5483  -0.3080   0.6916   0.9583   1.2906   1.4759   3.7046
     3.9136   4.6279   5.5158   6.4201

     occupation numbers 
     1.0000   1.0000   1.0000   1.0000   1.0000   1.0000   1.0000   1.0000
     1.0000   1.0000   1.0000   1.0000   1.0000   1.0000   1.0000   1.0000
     1.0000   1.0000   1.0000   1.0000   1.0000   1.0000   1.0000   0.0000
     0.0000   0.0000   0.0000   0.0000

          k = 0.0417 0.2646 0.0000 ( 15996 PWs)   bands (ev):

   -58.5494 -33.9524 -33.9503 -33.9470 -33.9333 -33.9056 -33.9038 -33.9029
   -33.8915 -33.8819 -33.8726 -32.6819 -32.6145 -32.5676 -12.1431 -11.6671
    -2.1529  -0.9822  -0.5971   0.4822   1.0837   1.1072   1.3961   3.5202
     3.9357   4.3733   5.5757   6.6390

     occupation numbers 
     1.0000   1.0000   1.0000   1.0000   1.0000   1.0000   1.0000   1.0000
     1.0000   1.0000   1.0000   1.0000   1.0000   1.0000   1.0000   1.0000
     1.0000   1.0000   1.0000   1.0000   1.0000   1.0000   1.0000   0.0000
     0.0000   0.0000   0.0000   0.0000

          k = 0.0417 0.3127 0.0000 ( 15975 PWs)   bands (ev):

   -58.5484 -33.9562 -33.9485 -33.9445 -33.9309 -33.9066 -33.9056 -33.9042
   -33.8917 -33.8811 -33.8712 -32.6721 -32.6310 -32.5706 -11.9543 -11.5357
    -1.9822  -1.3914  -0.9505   0.3074   0.9121   1.1245   1.4041   3.4494
     4.0856   4.1464   5.6193   6.8845

     occupation numbers 
     1.0000   1.0000   1.0000   1.0000   1.0000   1.0000   1.0000   1.0000
     1.0000   1.0000   1.0000   1.0000   1.0000   1.0000   1.0000   1.0000
     1.0000   1.0000   1.0000   1.0000   1.0000   1.0000   1.0000   0.0000
     0.0000   0.0000   0.0000   0.0000

          k = 0.0417 0.3608 0.0000 ( 15963 PWs)   bands (ev):

   -58.5474 -33.9603 -33.9467 -33.9421 -33.9285 -33.9078 -33.9075 -33.9046
   -33.8919 -33.8803 -33.8697 -32.6628 -32.6470 -32.5735 -11.7595 -11.4013
    -2.0861  -1.5302  -1.3343   0.1734   0.7413   1.0807   1.5279   3.4616
     3.9589   4.3065   5.6452   7.1416

     occupation numbers 
     1.0000   1.0000   1.0000   1.0000   1.0000   1.0000   1.0000   1.0000
     1.0000   1.0000   1.0000   1.0000   1.0000   1.0000   1.0000   1.0000
     1.0000   1.0000   1.0000   1.0000   1.0000   1.0000   1.0000   0.0000
     0.0000   0.0000   0.0000   0.0000

          k = 0.0417 0.4090 0.0000 ( 15946 PWs)   bands (ev):

   -58.5465 -33.9641 -33.9450 -33.9401 -33.9264 -33.9096 -33.9083 -33.9048
   -33.8921 -33.8797 -33.8684 -32.6613 -32.6544 -32.5761 -11.5725 -11.2736
    -2.4409  -1.7017  -1.4155   0.0727   0.6081   1.0675   1.6689   3.5241
     3.8180   4.5556   5.6534   7.2690

     occupation numbers 
     1.0000   1.0000   1.0000   1.0000   1.0000   1.0000   1.0000   1.0000
     1.0000   1.0000   1.0000   1.0000   1.0000   1.0000   1.0000   1.0000
     1.0000   1.0000   1.0000   1.0000   1.0000   1.0000   1.0000   0.0000
     0.0000   0.0000   0.0000   0.0000

          k = 0.0417 0.4571 0.0000 ( 15930 PWs)   bands (ev):

   -58.5457 -33.9673 -33.9437 -33.9386 -33.9247 -33.9109 -33.9088 -33.9050
   -33.8923 -33.8793 -33.8674 -32.6730 -32.6477 -32.5783 -11.4095 -11.1635
    -2.7746  -2.0121  -1.3049  -0.0020   0.5141   1.1104   1.7914   3.5976
     3.7393   4.7981   5.6449   6.7972

     occupation numbers 
     1.0000   1.0000   1.0000   1.0000   1.0000   1.0000   1.0000   1.0000
     1.0000   1.0000   1.0000   1.0000   1.0000   1.0000   1.0000   1.0000
     1.0000   1.0000   1.0000   1.0000   1.0000   1.0000   1.0000   0.0000
     0.0000   0.0000   0.0000   0.0000

          k = 0.0417 0.5052 0.0000 ( 15915 PWs)   bands (ev):

   -58.5452 -33.9696 -33.9427 -33.9375 -33.9236 -33.9117 -33.9091 -33.9050
   -33.8924 -33.8790 -33.8666 -32.6812 -32.6429 -32.5798 -11.2878 -11.0822
    -3.0205  -2.2356  -1.2373  -0.0528   0.4557   1.1825   1.8819   3.6007
     3.7763   5.0004   5.6221   6.3325

     occupation numbers 
     1.0000   1.0000   1.0000   1.0000   1.0000   1.0000   1.0000   1.0000
     1.0000   1.0000   1.0000   1.0000   1.0000   1.0000   1.0000   1.0000
     1.0000   1.0000   1.0000   1.0000   1.0000   1.0000   1.0000   0.0000
     0.0000   0.0000   0.0000   0.0000

          k = 0.0417 0.5533 0.0000 ( 15901 PWs)   bands (ev):

   -58.5449 -33.9708 -33.9421 -33.9370 -33.9229 -33.9121 -33.9093 -33.9051
   -33.8924 -33.8789 -33.8662 -32.6855 -32.6404 -32.5806 -11.2225 -11.0388
    -3.1505  -2.3524  -1.2077  -0.0788   0.4282   1.2360   1.9311   3.5780
     3.8423   5.1230   5.5975   6.0598

     occupation numbers 
     1.0000   1.0000   1.0000   1.0000   1.0000   1.0000   1.0000   1.0000
     1.0000   1.0000   1.0000   1.0000   1.0000   1.0000   1.0000   1.0000
     1.0000   1.0000   1.0000   1.0000   1.0000   1.0000   1.0000   0.0000
     0.0000   0.0000   0.0000   0.0000

          k = 0.0833 0.1443 0.0000 ( 16017 PWs)   bands (ev):

   -58.5514 -33.9536 -33.9521 -33.9457 -33.9382 -33.9036 -33.9027 -33.8966
   -33.8910 -33.8839 -33.8754 -32.7012 -32.5819 -32.5619 -12.4802 -11.9036
    -2.5724  -0.0942  -0.0443   0.8057   0.8784   1.4747   1.5523   4.0758
     4.0919   4.8916   5.4248   6.2163

     occupation numbers 
     1.0000   1.0000   1.0000   1.0000   1.0000   1.0000   1.0000   1.0000
     1.0000   1.0000   1.0000   1.0000   1.0000   1.0000   1.0000   1.0000
     1.0000   1.0000   1.0000   1.0000   1.0000   1.0000   1.0000   0.0000
     0.0000   0.0000   0.0000   0.0000

          k = 0.0833 0.1925 0.0000 ( 16007 PWs)   bands (ev):

   -58.5506 -33.9522 -33.9502 -33.9480 -33.9364 -33.9046 -33.9030 -33.8992
   -33.8912 -33.8831 -33.8743 -32.6935 -32.5944 -32.5646 -12.3507 -11.8125
    -2.4031  -0.4366  -0.2131   0.6038   0.8999   1.4569   1.5048   3.7752
     3.8786   4.6126   5.4756   6.3919

     occupation numbers 
     1.0000   1.0000   1.0000   1.0000   1.0000   1.0000   1.0000   1.0000
     1.0000   1.0000   1.0000   1.0000   1.0000   1.0000   1.0000   1.0000
     1.0000   1.0000   1.0000   1.0000   1.0000   1.0000   1.0000   0.0000
     0.0000   0.0000   0.0000   0.0000

          k = 0.0833 0.2406 0.0000 ( 15996 PWs)   bands (ev):

   -58.5497 -33.9510 -33.9505 -33.9479 -33.9344 -33.9058 -33.9032 -33.9020
   -33.8915 -33.8822 -33.8730 -32.6846 -32.6089 -32.5678 -12.1930 -11.7018
    -2.2055  -0.8295  -0.4407   0.3311   0.9762   1.3508   1.4550   3.5548
     3.8221   4.3518   5.5155   6.6018

     occupation numbers 
     1.0000   1.0000   1.0000   1.0000   1.0000   1.0000   1.0000   1.0000
     1.0000   1.0000   1.0000   1.0000   1.0000   1.0000   1.0000   1.0000
     1.0000   1.0000   1.0000   1.0000   1.0000   1.0000   1.0000   0.0000
     0.0000   0.0000   0.0000   0.0000

          k = 0.0833 0.2887 0.0000 ( 15988 PWs)   bands (ev):

   -58.5487 -33.9545 -33.9487 -33.9456 -33.9322 -33.9070 -33.9046 -33.9034
   -33.8918 -33.8814 -33.8716 -32.6751 -32.6245 -32.5712 -12.0142 -11.5771
    -2.0090  -1.2351  -0.7538   0.1212   0.9792   1.1797   1.4639   3.4302
     3.9120   4.1348   5.5396   6.8441

     occupation numbers 
     1.0000   1.0000   1.0000   1.0000   1.0000   1.0000   1.0000   1.0000
     1.0000   1.0000   1.0000   1.0000   1.0000   1.0000   1.0000   1.0000
     1.0000   1.0000   1.0000   1.0000   1.0000   1.0000   1.0000   0.0000
     0.0000   0.0000   0.0000   0.0000

          k = 0.0833 0.3368 0.0000 ( 15981 PWs)   bands (ev):

   -58.5477 -33.9583 -33.9469 -33.9432 -33.9300 -33.9082 -33.9068 -33.9035
   -33.8921 -33.8806 -33.8702 -32.6657 -32.6400 -32.5746 -11.8240 -11.4453
    -1.9469  -1.5145  -1.1297  -0.0131   0.9139   0.9870   1.5487   3.3914
     3.9717   4.0988   5.5461   7.1121

     occupation numbers 
     1.0000   1.0000   1.0000   1.0000   1.0000   1.0000   1.0000   1.0000
     1.0000   1.0000   1.0000   1.0000   1.0000   1.0000   1.0000   1.0000
     1.0000   1.0000   1.0000   1.0000   1.0000   1.0000   1.0000   0.0000
     0.0000   0.0000   0.0000   0.0000

          k = 0.0833 0.3849 0.0000 ( 15958 PWs)   bands (ev):

   -58.5468 -33.9621 -33.9452 -33.9411 -33.9280 -33.9092 -33.9086 -33.9035
   -33.8923 -33.8800 -33.8689 -32.6570 -32.6544 -32.5777 -11.6347 -11.3152
    -2.2316  -1.5122  -1.4517  -0.0941   0.8046   0.8542   1.6593   3.4206
     3.8607   4.3354   5.5350   7.3737

     occupation numbers 
     1.0000   1.0000   1.0000   1.0000   1.0000   1.0000   1.0000   1.0000
     1.0000   1.0000   1.0000   1.0000   1.0000   1.0000   1.0000   1.0000
     1.0000   1.0000   1.0000   1.0000   1.0000   1.0000   1.0000   0.0000
     0.0000   0.0000   0.0000   0.0000

          k = 0.0833 0.4330 0.0000 ( 15929 PWs)   bands (ev):

   -58.5459 -33.9655 -33.9437 -33.9394 -33.9263 -33.9101 -33.9099 -33.9034
   -33.8925 -33.8795 -33.8678 -32.6668 -32.6496 -32.5805 -11.4611 -11.1971
    -2.5756  -1.8535  -1.3265  -0.1414   0.6501   0.8410   1.7644   3.4976
     3.7942   4.5862   5.5056   7.1675

     occupation numbers 
     1.0000   1.0000   1.0000   1.0000   1.0000   1.0000   1.0000   1.0000
     1.0000   1.0000   1.0000   1.0000   1.0000   1.0000   1.0000   1.0000
     1.0000   1.0000   1.0000   1.0000   1.0000   1.0000   1.0000   0.0000
     0.0000   0.0000   0.0000   0.0000

          k = 0.0833 0.4811 0.0000 ( 15921 PWs)   bands (ev):

   -58.5453 -33.9682 -33.9425 -33.9381 -33.9250 -33.9108 -33.9106 -33.9033
   -33.8927 -33.8792 -33.8669 -32.6762 -32.6440 -32.5825 -11.3198 -11.1020
    -2.8572  -2.1203  -1.2402  -0.1667   0.5330   0.8702   1.8540   3.5754
     3.7849   4.8228   5.4555   6.6444

     occupation numbers 
     1.0000   1.0000   1.0000   1.0000   1.0000   1.0000   1.0000   1.0000
     1.0000   1.0000   1.0000   1.0000   1.0000   1.0000   1.0000   1.0000
     1.0000   1.0000   1.0000   1.0000   1.0000   1.0000   1.0000   0.0000
     0.0000   0.0000   0.0000   0.0000

          k = 0.0833 0.5292 0.0000 ( 15924 PWs)   bands (ev):

   -58.5449 -33.9699 -33.9418 -33.9373 -33.9242 -33.9113 -33.9110 -33.9032
   -33.8928 -33.8790 -33.8663 -32.6822 -32.6404 -32.5839 -11.2269 -11.0400
    -3.0395  -2.2897  -1.1961  -0.1781   0.4597   0.9093   1.9199   3.5914
     3.8505   5.0184   5.3849   6.2586

     occupation numbers 
     1.0000   1.0000   1.0000   1.0000   1.0000   1.0000   1.0000   1.0000
     1.0000   1.0000   1.0000   1.0000   1.0000   1.0000   1.0000   1.0000
     1.0000   1.0000   1.0000   1.0000   1.0000   1.0000   1.0000   0.0000
     0.0000   0.0000   0.0000   0.0000

          k = 0.0833 0.5774 0.0000 ( 15918 PWs)   bands (ev):

   -58.5448 -33.9705 -33.9415 -33.9371 -33.9240 -33.9114 -33.9111 -33.9032
   -33.8928 -33.8790 -33.8661 -32.6842 -32.6392 -32.5843 -11.1944 -11.0185
    -3.1025  -2.3477  -1.1833  -0.1812   0.4346   0.9265   1.9453   3.5862
     3.8937   5.1154   5.3320   6.1138

     occupation numbers 
     1.0000   1.0000   1.0000   1.0000   1.0000   1.0000   1.0000   1.0000
     1.0000   1.0000   1.0000   1.0000   1.0000   1.0000   1.0000   1.0000
     1.0000   1.0000   1.0000   1.0000   1.0000   1.0000   1.0000   0.0000
     0.0000   0.0000   0.0000   0.0000

          k = 0.1250 0.2165 0.0000 ( 16013 PWs)   bands (ev):

   -58.5498 -33.9506 -33.9505 -33.9483 -33.9348 -33.9059 -33.9030 -33.9016
   -33.8915 -33.8823 -33.8732 -32.6855 -32.6069 -32.5680 -12.2098 -11.7136
    -2.2236  -0.7718  -0.3673   0.2557   0.9351   1.4489   1.4746   3.5711
     3.7688   4.3300   5.4914   6.5910

     occupation numbers 
     1.0000   1.0000   1.0000   1.0000   1.0000   1.0000   1.0000   1.0000
     1.0000   1.0000   1.0000   1.0000   1.0000   1.0000   1.0000   1.0000
     1.0000   1.0000   1.0000   1.0000   1.0000   1.0000   1.0000   0.0000
     0.0000   0.0000   0.0000   0.0000

          k = 0.1250 0.2646 0.0000 ( 15987 PWs)   bands (ev):

   -58.5489 -33.9535 -33.9487 -33.9463 -33.9330 -33.9072 -33.9040 -33.9030
   -33.8919 -33.8815 -33.8719 -32.6767 -32.6206 -32.5719 -12.0449 -11.5982
    -2.0286  -1.1321  -0.5955  -0.0402   0.8866   1.3537   1.4966   3.4188
     3.7818   4.1071   5.4924   6.8259

     occupation numbers 
     1.0000   1.0000   1.0000   1.0000   1.0000   1.0000   1.0000   1.0000
     1.0000   1.0000   1.0000   1.0000   1.0000   1.0000   1.0000   1.0000
     1.0000   1.0000   1.0000   1.0000   1.0000   1.0000   1.0000   0.0000
     0.0000   0.0000   0.0000   0.0000

          k = 0.1250 0.3127 0.0000 ( 15976 PWs)   bands (ev):

   -58.5479 -33.9569 -33.9467 -33.9442 -33.9312 -33.9086 -33.9060 -33.9028
   -33.8922 -33.8808 -33.8705 -32.6676 -32.6348 -32.5760 -11.8642 -11.4726
    -1.8849  -1.4481  -0.9355  -0.2100   0.7655   1.1896   1.5709   3.3344
     3.9051   3.9613   5.4820   7.0928

     occupation numbers 
     1.0000   1.0000   1.0000   1.0000   1.0000   1.0000   1.0000   1.0000
     1.0000   1.0000   1.0000   1.0000   1.0000   1.0000   1.0000   1.0000
     1.0000   1.0000   1.0000   1.0000   1.0000   1.0000   1.0000   0.0000
     0.0000   0.0000   0.0000   0.0000

          k = 0.1250 0.3608 0.0000 ( 15967 PWs)   bands (ev):

   -58.5470 -33.9604 -33.9449 -33.9422 -33.9295 -33.9099 -33.9077 -33.9026
   -33.8926 -33.8802 -33.8692 -32.6589 -32.6483 -32.5800 -11.6785 -11.3443
    -2.0428  -1.4704  -1.3202  -0.2907   0.6334   0.9952   1.6595   3.3317
     3.8761   4.0972   5.4643   7.3790

     occupation numbers 
     1.0000   1.0000   1.0000   1.0000   1.0000   1.0000   1.0000   1.0000
     1.0000   1.0000   1.0000   1.0000   1.0000   1.0000   1.0000   1.0000
     1.0000   1.0000   1.0000   1.0000   1.0000   1.0000   1.0000   0.0000
     0.0000   0.0000   0.0000   0.0000

          k = 0.1250 0.4090 0.0000 ( 15953 PWs)   bands (ev):

   -58.5461 -33.9638 -33.9434 -33.9403 -33.9280 -33.9111 -33.9089 -33.9022
   -33.8929 -33.8797 -33.8681 -32.6605 -32.6511 -32.5837 -11.5011 -11.2229
    -2.3630  -1.6815  -1.3385  -0.3254   0.5373   0.8033   1.7430   3.4085
     3.8263   4.3155   5.4431   7.5032

     occupation numbers 
     1.0000   1.0000   1.0000   1.0000   1.0000   1.0000   1.0000   1.0000
     1.0000   1.0000   1.0000   1.0000   1.0000   1.0000   1.0000   1.0000
     1.0000   1.0000   1.0000   1.0000   1.0000   1.0000   1.0000   0.0000
     0.0000   0.0000   0.0000   0.0000

          k = 0.1250 0.4571 0.0000 ( 15939 PWs)   bands (ev):

   -58.5454 -33.9666 -33.9422 -33.9387 -33.9268 -33.9120 -33.9097 -33.9018
   -33.8931 -33.8794 -33.8671 -32.6703 -32.6448 -32.5867 -11.3472 -11.1186
    -2.6537  -1.9811  -1.2346  -0.3331   0.4930   0.6364   1.8226   3.5240
     3.8092   4.5237   5.4214   7.0144

     occupation numbers 
     1.0000   1.0000   1.0000   1.0000   1.0000   1.0000   1.0000   1.0000
     1.0000   1.0000   1.0000   1.0000   1.0000   1.0000   1.0000   1.0000
     1.0000   1.0000   1.0000   1.0000   1.0000   1.0000   1.0000   0.0000
     0.0000   0.0000   0.0000   0.0000

          k = 0.1250 0.5052 0.0000 ( 15921 PWs)   bands (ev):

   -58.5449 -33.9686 -33.9414 -33.9376 -33.9259 -33.9126 -33.9102 -33.9015
   -33.8933 -33.8793 -33.8665 -32.6773 -32.6404 -32.5888 -11.2328 -11.0417
    -2.8683  -2.1945  -1.1776  -0.3262   0.4866   0.5112   1.8977   3.5819
     3.8717   4.6891   5.4016   6.5472

     occupation numbers 
     1.0000   1.0000   1.0000   1.0000   1.0000   1.0000   1.0000   1.0000
     1.0000   1.0000   1.0000   1.0000   1.0000   1.0000   1.0000   1.0000
     1.0000   1.0000   1.0000   1.0000   1.0000   1.0000   1.0000   0.0000
     0.0000   0.0000   0.0000   0.0000

          k = 0.1250 0.5533 0.0000 ( 15931 PWs)   bands (ev):

   -58.5447 -33.9697 -33.9411 -33.9370 -33.9255 -33.9129 -33.9105 -33.9013
   -33.8934 -33.8792 -33.8661 -32.6809 -32.6381 -32.5899 -11.1716 -11.0008
    -2.9820  -2.3054  -1.1554  -0.3176   0.4430   0.4920   1.9482   3.5754
     3.9655   4.7824   5.3885   6.2701

     occupation numbers 
     1.0000   1.0000   1.0000   1.0000   1.0000   1.0000   1.0000   1.0000
     1.0000   1.0000   1.0000   1.0000   1.0000   1.0000   1.0000   1.0000
     1.0000   1.0000   1.0000   1.0000   1.0000   1.0000   1.0000   0.0000
     0.0000   0.0000   0.0000   0.0000

          k = 0.1667 0.2887 0.0000 ( 15973 PWs)   bands (ev):

   -58.5480 -33.9563 -33.9466 -33.9446 -33.9317 -33.9088 -33.9057 -33.9026
   -33.8923 -33.8808 -33.8706 -32.6682 -32.6328 -32.5767 -11.8778 -11.4818
    -1.8716  -1.4100  -0.8344  -0.3137   0.7061   1.2700   1.5793   3.3125
     3.8237   3.9549   5.4615   7.0853

     occupation numbers 
     1.0000   1.0000   1.0000   1.0000   1.0000   1.0000   1.0000   1.0000
     1.0000   1.0000   1.0000   1.0000   1.0000   1.0000   1.0000   1.0000
     1.0000   1.0000   1.0000   1.0000   1.0000   1.0000   1.0000   0.0000
     0.0000   0.0000   0.0000   0.0000

          k = 0.1667 0.3368 0.0000 ( 15959 PWs)   bands (ev):

   -58.5471 -33.9594 -33.9445 -33.9430 -33.9304 -33.9103 -33.9071 -33.9020
   -33.8928 -33.8803 -33.8694 -32.6598 -32.6447 -32.5818 -11.7011 -11.3593
    -1.9283  -1.4734  -1.1739  -0.4438   0.4908   1.1151   1.6602   3.2813
     3.8799   3.9400   5.4366   7.3725

     occupation numbers 
     1.0000   1.0000   1.0000   1.0000   1.0000   1.0000   1.0000   1.0000
     1.0000   1.0000   1.0000   1.0000   1.0000   1.0000   1.0000   1.0000
     1.0000   1.0000   1.0000   1.0000   1.0000   1.0000   1.0000   0.0001
     0.0000   0.0000   0.0000   0.0000

          k = 0.1667 0.3849 0.0000 ( 15953 PWs)   bands (ev):

   -58.5462 -33.9624 -33.9430 -33.9411 -33.9293 -33.9118 -33.9082 -33.9014
   -33.8932 -33.8799 -33.8683 -32.6555 -32.6521 -32.5867 -11.5264 -11.2391
    -2.1880  -1.5285  -1.3415  -0.4938   0.2906   0.9248   1.7277   3.3488
     3.8417   4.0953   5.4278   7.6379

     occupation numbers 
     1.0000   1.0000   1.0000   1.0000   1.0000   1.0000   1.0000   1.0000
     1.0000   1.0000   1.0000   1.0000   1.0000   1.0000   1.0000   1.0000
     1.0000   1.0000   1.0000   1.0000   1.0000   1.0000   1.0000   0.0000
     0.0000   0.0000   0.0000   0.0000

          k = 0.1667 0.4330 0.0000 ( 15955 PWs)   bands (ev):

   -58.5455 -33.9651 -33.9420 -33.9391 -33.9283 -33.9130 -33.9089 -33.9007
   -33.8936 -33.8796 -33.8673 -32.6648 -32.6454 -32.5909 -11.3673 -11.1304
    -2.4503  -1.8414  -1.2208  -0.5033   0.1419   0.7340   1.7953   3.4783
     3.8281   4.2495   5.4407   7.3902

     occupation numbers 
     1.0000   1.0000   1.0000   1.0000   1.0000   1.0000   1.0000   1.0000
     1.0000   1.0000   1.0000   1.0000   1.0000   1.0000   1.0000   1.0000
     1.0000   1.0000   1.0000   1.0000   1.0000   1.0000   1.0000   0.0000
     0.0000   0.0000   0.0000   0.0000

          k = 0.1667 0.4811 0.0000 ( 15952 PWs)   bands (ev):

   -58.5449 -33.9673 -33.9414 -33.9375 -33.9276 -33.9140 -33.9093 -33.9001
   -33.8938 -33.8795 -33.8666 -32.6718 -32.6404 -32.5943 -11.2388 -11.0433
    -2.6639  -2.0835  -1.1519  -0.4904   0.0573   0.5704   1.8733   3.5573
     3.8964   4.3715   5.4719   6.8919

     occupation numbers 
     1.0000   1.0000   1.0000   1.0000   1.0000   1.0000   1.0000   1.0000
     1.0000   1.0000   1.0000   1.0000   1.0000   1.0000   1.0000   1.0000
     1.0000   1.0000   1.0000   1.0000   1.0000   1.0000   1.0000   0.0000
     0.0000   0.0000   0.0000   0.0000

          k = 0.1667 0.5292 0.0000 ( 15944 PWs)   bands (ev):

   -58.5446 -33.9686 -33.9410 -33.9364 -33.9272 -33.9146 -33.9095 -33.8997
   -33.8940 -33.8795 -33.8662 -32.6762 -32.6372 -32.5964 -11.1548 -10.9867
    -2.8031  -2.2362  -1.1263  -0.4710   0.0224   0.4576   1.9460   3.5418
     4.0406   4.4460   5.5055   6.5134

     occupation numbers 
     1.0000   1.0000   1.0000   1.0000   1.0000   1.0000   1.0000   1.0000
     1.0000   1.0000   1.0000   1.0000   1.0000   1.0000   1.0000   1.0000
     1.0000   1.0000   1.0000   1.0000   1.0000   1.0000   1.0000   0.0000
     0.0000   0.0000   0.0000   0.0000

          k = 0.1667 0.5774 0.0000 ( 15952 PWs)   bands (ev):

   -58.5445 -33.9691 -33.9409 -33.9360 -33.9270 -33.9148 -33.9095 -33.8995
   -33.8941 -33.8795 -33.8660 -32.6777 -32.6361 -32.5971 -11.1255 -10.9671
    -2.8515  -2.2884  -1.1213  -0.4618   0.0141   0.4169   1.9772   3.5239
     4.1127   4.4704   5.5200   6.3682

     occupation numbers 
     1.0000   1.0000   1.0000   1.0000   1.0000   1.0000   1.0000   1.0000
     1.0000   1.0000   1.0000   1.0000   1.0000   1.0000   1.0000   1.0000
     1.0000   1.0000   1.0000   1.0000   1.0000   1.0000   1.0000   0.0000
     0.0000   0.0000   0.0000   0.0000

          k = 0.2083 0.3608 0.0000 ( 15961 PWs)   bands (ev):

   -58.5463 -33.9619 -33.9427 -33.9415 -33.9298 -33.9120 -33.9079 -33.9011
   -33.8933 -33.8799 -33.8684 -32.6536 -32.6524 -32.5879 -11.5350 -11.2446
    -2.1178  -1.4604  -1.3408  -0.5682   0.1926   0.9719   1.7221   3.3281
     3.8462   4.0113   5.4260   7.6585

     occupation numbers 
     1.0000   1.0000   1.0000   1.0000   1.0000   1.0000   1.0000   1.0000
     1.0000   1.0000   1.0000   1.0000   1.0000   1.0000   1.0000   1.0000
     1.0000   1.0000   1.0000   1.0000   1.0000   1.0000   1.0000   0.0000
     0.0000   0.0000   0.0000   0.0000

          k = 0.2083 0.4090 0.0000 ( 15967 PWs)   bands (ev):

   -58.5455 -33.9642 -33.9419 -33.9393 -33.9293 -33.9136 -33.9084 -33.9002
   -33.8938 -33.8798 -33.8675 -32.6613 -32.6457 -32.5938 -11.3779 -11.1366
    -2.3140  -1.7452  -1.2050  -0.6184  -0.0831   0.7942   1.7795   3.4528
     3.8377   4.0922   5.4590   7.6761

     occupation numbers 
     1.0000   1.0000   1.0000   1.0000   1.0000   1.0000   1.0000   1.0000
     1.0000   1.0000   1.0000   1.0000   1.0000   1.0000   1.0000   1.0000
     1.0000   1.0000   1.0000   1.0000   1.0000   1.0000   1.0000   0.0000
     0.0000   0.0000   0.0000   0.0000

          k = 0.2083 0.4571 0.0000 ( 15951 PWs)   bands (ev):

   -58.5449 -33.9662 -33.9415 -33.9371 -33.9289 -33.9149 -33.9086 -33.8992
   -33.8943 -33.8797 -33.8667 -32.6672 -32.6403 -32.5989 -11.2431 -11.0445
    -2.4800  -1.9870  -1.1189  -0.6255  -0.2900   0.6182   1.8550   3.5349
     3.9143   4.1579   5.5272   7.2457

     occupation numbers 
     1.0000   1.0000   1.0000   1.0000   1.0000   1.0000   1.0000   1.0000
     1.0000   1.0000   1.0000   1.0000   1.0000   1.0000   1.0000   1.0000
     1.0000   1.0000   1.0000   1.0000   1.0000   1.0000   1.0000   0.0000
     0.0000   0.0000   0.0000   0.0000

          k = 0.2083 0.5052 0.0000 ( 15954 PWs)   bands (ev):

   -58.5445 -33.9676 -33.9413 -33.9355 -33.9286 -33.9159 -33.9087 -33.8985
   -33.8946 -33.8798 -33.8662 -32.6713 -32.6365 -32.6026 -11.1439 -10.9771
    -2.6002  -2.1608  -1.0959  -0.6116  -0.4035   0.4757   1.9433   3.5044
     4.0977   4.1989   5.6036   6.8221

     occupation numbers 
     1.0000   1.0000   1.0000   1.0000   1.0000   1.0000   1.0000   1.0000
     1.0000   1.0000   1.0000   1.0000   1.0000   1.0000   1.0000   1.0000
     1.0000   1.0000   1.0000   1.0000   1.0000   1.0000   1.0000   0.0000
     0.0000   0.0000   0.0000   0.0000

          k = 0.2083 0.5533 0.0000 ( 15952 PWs)   bands (ev):

   -58.5443 -33.9684 -33.9413 -33.9346 -33.9284 -33.9165 -33.9087 -33.8981
   -33.8948 -33.8798 -33.8660 -32.6733 -32.6346 -32.6046 -11.0911 -10.9413
    -2.6635  -2.2514  -1.1045  -0.5967  -0.4436   0.3946   2.0080   3.4559
     4.2175   4.2475   5.6537   6.5578

     occupation numbers 
     1.0000   1.0000   1.0000   1.0000   1.0000   1.0000   1.0000   1.0000
     1.0000   1.0000   1.0000   1.0000   1.0000   1.0000   1.0000   1.0000
     1.0000   1.0000   1.0000   1.0000   1.0000   1.0000   1.0000   0.0000
     0.0000   0.0000   0.0000   0.0000

          k = 0.2500 0.4330 0.0000 ( 15946 PWs)   bands (ev):

   -58.5449 -33.9658 -33.9416 -33.9370 -33.9293 -33.9152 -33.9083 -33.8989
   -33.8944 -33.8798 -33.8668 -32.6654 -32.6403 -32.6007 -11.2447 -11.0450
    -2.4012  -1.9469  -1.0977  -0.6796  -0.4350   0.6367   1.8483   3.5263
     3.9206   4.0828   5.5474   7.4429

     occupation numbers 
     1.0000   1.0000   1.0000   1.0000   1.0000   1.0000   1.0000   1.0000
     1.0000   1.0000   1.0000   1.0000   1.0000   1.0000   1.0000   1.0000
     1.0000   1.0000   1.0000   1.0000   1.0000   1.0000   1.0000   0.0000
     0.0000   0.0000   0.0000   0.0000

          k = 0.2500 0.4811 0.0000 ( 15952 PWs)   bands (ev):

   -58.5445 -33.9670 -33.9416 -33.9348 -33.9294 -33.9167 -33.9082 -33.8978
   -33.8949 -33.8799 -33.8663 -32.6680 -32.6362 -32.6066 -11.1385 -10.9721
    -2.4478  -2.1092  -1.0628  -0.6988  -0.6898   0.4883   1.9418   3.4809
     4.0688   4.1275   5.6583   7.1197

     occupation numbers 
     1.0000   1.0000   1.0000   1.0000   1.0000   1.0000   1.0000   1.0000
     1.0000   1.0000   1.0000   1.0000   1.0000   1.0000   1.0000   1.0000
     1.0000   1.0000   1.0000   1.0000   1.0000   1.0000   1.0000   0.0000
     0.0000   0.0000   0.0000   0.0000

          k = 0.2500 0.5292 0.0000 ( 15958 PWs)   bands (ev):

   -58.5442 -33.9678 -33.9416 -33.9333 -33.9294 -33.9178 -33.9081 -33.8971
   -33.8953 -33.8801 -33.8660 -32.6693 -32.6336 -32.6106 -11.0699 -10.9251
    -2.4635  -2.2139  -1.1328  -0.7769  -0.6972   0.3817   2.0333   3.3994
     4.0567   4.3374   5.7486   6.8211

     occupation numbers 
     1.0000   1.0000   1.0000   1.0000   1.0000   1.0000   1.0000   1.0000
     1.0000   1.0000   1.0000   1.0000   1.0000   1.0000   1.0000   1.0000
     1.0000   1.0000   1.0000   1.0000   1.0000   1.0000   1.0000   0.0000
     0.0000   0.0000   0.0000   0.0000

          k = 0.2500 0.5774 0.0000 ( 15950 PWs)   bands (ev):

   -58.5441 -33.9680 -33.9416 -33.9327 -33.9295 -33.9182 -33.9080 -33.8968
   -33.8954 -33.8801 -33.8659 -32.6697 -32.6327 -32.6120 -11.0461 -10.9088
    -2.4655  -2.2501  -1.1825  -0.7852  -0.6939   0.3426   2.0735   3.3608
     4.0520   4.4282   5.7832   6.6960

     occupation numbers 
     1.0000   1.0000   1.0000   1.0000   1.0000   1.0000   1.0000   1.0000
     1.0000   1.0000   1.0000   1.0000   1.0000   1.0000   1.0000   1.0000
     1.0000   1.0000   1.0000   1.0000   1.0000   1.0000   1.0000   0.0000
     0.0000   0.0000   0.0000   0.0000

          k = 0.2917 0.5052 0.0000 ( 15946 PWs)   bands (ev):

   -58.5442 -33.9675 -33.9417 -33.9328 -33.9298 -33.9183 -33.9079 -33.8968
   -33.8954 -33.8802 -33.8660 -32.6676 -32.6333 -32.6130 -11.0627 -10.9196
    -2.3638  -2.1979  -1.1868  -0.8779  -0.7351   0.3777   2.0434   3.3775
     4.0017   4.3685   5.7826   7.0061

     occupation numbers 
     1.0000   1.0000   1.0000   1.0000   1.0000   1.0000   1.0000   1.0000
     1.0000   1.0000   1.0000   1.0000   1.0000   1.0000   1.0000   1.0000
     1.0000   1.0000   1.0000   1.0000   1.0000   1.0000   1.0000   0.0000
     0.0000   0.0000   0.0000   0.0000

          k = 0.2917 0.5533 0.0000 ( 15940 PWs)   bands (ev):

   -58.5440 -33.9678 -33.9419 -33.9315 -33.9300 -33.9193 -33.9076 -33.8961
   -33.8957 -33.8803 -33.8658 -32.6670 -32.6318 -32.6167 -11.0228 -10.8919
    -2.2736  -2.2447  -1.3923  -0.8831  -0.7483   0.3141   2.1183   3.2971
     3.9662   4.5326   5.8572   6.9122

     occupation numbers 
     1.0000   1.0000   1.0000   1.0000   1.0000   1.0000   1.0000   1.0000
     1.0000   1.0000   1.0000   1.0000   1.0000   1.0000   1.0000   1.0000
     1.0000   1.0000   1.0000   1.0000   1.0000   1.0000   1.0001   0.0000
     0.0000   0.0000   0.0000   0.0000

          k = 0.3333 0.5774 0.0000 ( 15942 PWs)   bands (ev):

   -58.5439 -33.9678 -33.9420 -33.9308 -33.9302 -33.9199 -33.9075 -33.8959
   -33.8958 -33.8805 -33.8658 -32.6659 -32.6311 -32.6190 -11.0067 -10.8805
    -2.2547  -2.1453  -1.5738  -0.8904  -0.7653   0.2896   2.1551   3.2533
     3.9353   4.6093   5.8973   7.1195

     occupation numbers 
     1.0000   1.0000   1.0000   1.0000   1.0000   1.0000   1.0000   1.0000
     1.0000   1.0000   1.0000   1.0000   1.0000   1.0000   1.0000   1.0000
     1.0000   1.0000   1.0000   1.0000   1.0000   1.0000   1.0003   0.0001
     0.0000   0.0000   0.0000   0.0000

     the Fermi energy is     2.8223 ev

     WARNING: integrated charge=    46.00001563, expected=    46.00000000

!    total energy              =    -560.64136459 Ry
     estimated scf accuracy    <          2.4E-10 Ry
     smearing contrib. (-TS)   =       0.00000018 Ry
     internal energy E=F+TS    =    -560.64136477 Ry

     The total energy is F=E-TS. E is the sum of the following terms:
     one-electron contribution =   -2035.77266010 Ry
     hartree contribution      =    1020.54937184 Ry
     xc contribution           =    -119.01997683 Ry
     ewald contribution        =     573.60190033 Ry

     convergence has been achieved in  11 iterations

     Writing all to output data dir ./outdir/MoTe2.save/
 
     init_run     :     18.23s CPU     10.15s WALL (       1 calls)
     electrons    :    730.61s CPU    396.92s WALL (       1 calls)

     Called by init_run:
     wfcinit      :     17.48s CPU      9.66s WALL (       1 calls)
     wfcinit:atom :      0.32s CPU      0.17s WALL (      61 calls)
     wfcinit:wfcr :     15.59s CPU      8.68s WALL (      61 calls)
     potinit      :      0.28s CPU      0.15s WALL (       1 calls)
     hinit0       :      0.38s CPU      0.24s WALL (       1 calls)

     Called by electrons:
     c_bands      :    638.55s CPU    346.05s WALL (      12 calls)
     sum_band     :     90.27s CPU     49.83s WALL (      12 calls)
     v_of_rho     :      1.44s CPU      0.81s WALL (      12 calls)
     v_h          :      0.09s CPU      0.05s WALL (      12 calls)
     v_xc         :      1.35s CPU      0.76s WALL (      12 calls)
     mix_rho      :      0.39s CPU      0.23s WALL (      12 calls)

     Called by c_bands:
     init_us_2    :     10.63s CPU      5.36s WALL (    1525 calls)
     init_us_2:cp :     10.61s CPU      5.36s WALL (    1525 calls)
     cegterg      :    536.76s CPU    294.65s WALL (     732 calls)

     Called by sum_band:
     sum_band:wei :      0.12s CPU      0.06s WALL (      12 calls)
     sum_band:loo :     89.78s CPU     49.53s WALL (      12 calls)
     sum_band:buf :      0.93s CPU      0.48s WALL (     732 calls)
     sum_band:ini :      5.07s CPU      2.55s WALL (     732 calls)

     Called by *egterg:
     cdiaghg      :      6.35s CPU      3.36s WALL (    3086 calls)
     cegterg:over :     23.01s CPU     12.18s WALL (    2415 calls)
     cegterg:upda :     13.83s CPU      7.21s WALL (    2415 calls)
     cegterg:last :     19.41s CPU     10.11s WALL (    1498 calls)
     h_psi        :    474.43s CPU    262.13s WALL (    3208 calls)
     g_psi        :      3.69s CPU      2.12s WALL (    2415 calls)

     Called by h_psi:
     h_psi:calbec :     28.29s CPU     14.86s WALL (    3208 calls)
     vloc_psi     :    416.10s CPU    231.56s WALL (    3208 calls)
     add_vuspsi   :     28.38s CPU     14.77s WALL (    3208 calls)

     General routines
     calbec       :     28.27s CPU     14.85s WALL (    3208 calls)
     fft          :      0.68s CPU      0.43s WALL (     121 calls)
     ffts         :      0.07s CPU      0.04s WALL (      12 calls)
     fftw         :    458.36s CPU    251.52s WALL (  130114 calls)
 
     Parallel routines
 
     PWSCF        :  12m30.69s CPU   6m48.78s WALL

 
   This run was terminated on:   4:13:32   9Jan2024            

=------------------------------------------------------------------------------=
   JOB DONE.
=------------------------------------------------------------------------------=
