export BASH_ENV=/etc/profile.d/modules.sh

     Program BANDS v.7.2 starts on 11Jan2024 at  3:48:41 

     This program is part of the open-source Quantum ESPRESSO suite
     for quantum simulation of materials; please cite
         "P. Giannozzi et al., J. Phys.:Condens. Matter 21 395502 (2009);
         "P. Giannozzi et al., J. Phys.:Condens. Matter 29 465901 (2017);
         "P. Giannozzi et al., J. Chem. Phys. 152 154105 (2020);
          URL http://www.quantum-espresso.org", 
     in publications or presentations arising from this work. More details at
     http://www.quantum-espresso.org/quote

     Parallel version (MPI & OpenMP), running on       2 processor cores
     Number of MPI processes:                 2
     Threads/MPI process:                     1

     MPI processes distributed on     1 nodes
     R & G space division:  proc/nbgrp/npool/nimage =       2
     59760 MiB available memory on the printing compute node when the environment starts
 

     Reading xml data from directory:

     ./outdir/MoTe2.save/

     IMPORTANT: XC functional enforced from input :
     Exchange-correlation= PBE
                           (   1   4   3   4   0   0   0)
     Any further DFT definition will be discarded
     Please, verify this is what you really want

 
     Parallelization info
     --------------------
     sticks:   dense  smooth     PW     G-vecs:    dense   smooth      PW
     Min         411     411    120                67603    67603   10582
     Max         412     412    121                67614    67614   10599
     Sum         823     823    241               135217   135217   21181
 
     Using Slab Decomposition
 
     Reading collected, re-writing distributed wavefunctions
     high-symmetry point:  0.0000 0.0000 0.0000   x coordinate   0.0000
     high-symmetry point:  0.5000 0.2887 0.0000   x coordinate   0.5774
     high-symmetry point:  0.3333 0.5774 0.0000   x coordinate   0.9107
     high-symmetry point:  0.0000 0.0000 0.0000   x coordinate   1.5774
     high-symmetry point:  0.0000 0.0000 0.0700   x coordinate   1.6474
     high-symmetry point:  0.5000 0.2887 0.0700   x coordinate   2.2247
     high-symmetry point:  0.3333 0.5774 0.0700   x coordinate   2.5581
     high-symmetry point:  0.0000 0.0000 0.0700   x coordinate   3.2247
     high-symmetry point:  0.5000 0.2887 0.0700   x coordinate   3.2247
     high-symmetry point:  0.5000 0.2887 0.0000   x coordinate   3.2948
     high-symmetry point:  0.3333 0.5774 0.0700   x coordinate   3.2948
     high-symmetry point:  0.3333 0.5774 0.0000   x coordinate   3.3648
     high-symmetry point:  0.0000 0.0000 0.0000   x coordinate   3.3648
     high-symmetry point: -0.5000-0.2887 0.0000   x coordinate   3.9422
     high-symmetry point: -0.3333-0.5774 0.0000   x coordinate   4.2755
     high-symmetry point:  0.0000 0.0000 0.0000   x coordinate   4.9422
     high-symmetry point:  0.0000 0.0000-0.0700   x coordinate   5.0122
     high-symmetry point: -0.5000-0.2887-0.0700   x coordinate   5.5895
     high-symmetry point: -0.3333-0.5774-0.0700   x coordinate   5.9229
     high-symmetry point:  0.0000 0.0000-0.0700   x coordinate   6.5895
     high-symmetry point: -0.5000-0.2887-0.0700   x coordinate   6.5895
     high-symmetry point: -0.5000-0.2887 0.0000   x coordinate   6.6596
     high-symmetry point: -0.3333-0.5774-0.0700   x coordinate   6.6596
     high-symmetry point: -0.3333-0.5774 0.0000   x coordinate   6.7296

     Plottable bands (eV) written to file MoTe2.bands.dat.gnu
     Bands written to file MoTe2.bands.dat

 **************************************************************************

                    xk=(   0.00000,   0.00000,   0.00000  )

     point group C_3v (3m)  
     there are  3 classes
     the character table:

       E     2C3   3s_v 
A_1    1.00  1.00  1.00
A_2    1.00  1.00 -1.00
E      2.00 -1.00  0.00

     the symmetry operations in each class and the name of the first element:

     E        1
                                                                 
     2C3      2    3
                                                                 
     3s_v     4    5    6
                                                                 

     Band symmetry, C_3v (3m)   point group:

     e(  1 -  1) =    -59.19643  eV     1   --> A_1  L_1       
     e(  2 -  3) =    -35.27640  eV     2   --> E    L_3       
     e(  4 -  5) =    -35.16583  eV     2   --> E    L_3       
     e(  6 -  6) =    -35.16016  eV     1   --> A_1  L_1       
     e(  7 -  8) =    -34.69328  eV     2   --> E    L_3       
     e(  9 - 10) =    -34.49659  eV     2   --> E    L_3       
     e( 11 - 11) =    -34.48023  eV     1   --> A_1  L_1       
     e( 12 - 12) =    -33.46702  eV     1   --> A_1  L_1       
     e( 13 - 14) =    -33.04557  eV     2   --> E    L_3       
     e( 15 - 15) =    -14.61283  eV     1   --> A_1  L_1       
     e( 16 - 16) =    -13.44271  eV     1   --> A_1  L_1       
     e( 17 - 17) =     -3.83311  eV     1   --> A_1  L_1       
     e( 18 - 18) =     -1.39631  eV     1   --> A_1  L_1       
     e( 19 - 19) =      0.14108  eV     1   --> A_1  L_1       
     e( 20 - 21) =      0.72770  eV     2   --> E    L_3       
     e( 22 - 22) =      1.47315  eV     1   --> A_1  L_1       
     e( 23 - 24) =      2.02009  eV     2   --> E    L_3       
     e( 25 - 25) =      5.60753  eV     1   --> A_1  L_1       
     e( 26 - 27) =      5.95836  eV     2   --> E    L_3       
     e( 28 - 28) =      5.98496  eV     1   --> A_1  L_1       
     e( 29 - 30) =      6.14568  eV     2   --> E    L_3       
     e( 31 - 31) =      6.99676  eV     1   --> A_1  L_1       
     e( 32 - 32) =      7.33618  eV     1   --> A_1  L_1       
     e( 33 - 33) =      8.75308  eV     1   --> A_1  L_1       
     e( 34 - 34) =      9.31810  eV     1   --> A_1  L_1       
     e( 35 - 35) =      9.91643  eV     1   --> A_1  L_1       
     e( 36 - 36) =     11.45162  eV     1   --> A_1  L_1       
     e( 37 - 37) =     11.56566  eV     1   --> A_1  L_1       
     e( 38 - 38) =     12.27827  eV     1   --> A_1  L_1       
     e( 39 - 40) =     12.49757  eV     2   --> E    L_3       
     e( 41 - 41) =     12.75993  eV     1   --> A_1  L_1       
     e( 42 - 43) =     13.32896  eV     2   --> E    L_3       
     e( 44 - 44) =     13.65754  eV     1   --> A_1  L_1       
     e( 45 - 45) =     14.14836  eV     1   --> A_1  L_1       
     e( 46 - 46) =     15.39609  eV     1   --> A_1  L_1       

 **************************************************************************

 **************************************************************************

                    xk=(   0.01136,   0.00656,   0.00000  )

     point group C_s (m)    
     there are  2 classes
     the character table:

       E     s    
A'     1.00  1.00
A''    1.00 -1.00

     the symmetry operations in each class and the name of the first element:

     E        1
                                                                 
     s        2
                                                                 

     Band symmetry, C_s (m)     point group:

     e(  1 -  1) =    -59.19639  eV     1   --> A'             
     e(  2 -  3) =    -35.27641  eV     2   --> A'             
     e(  2 -  3) =    -35.27641  eV     2   --> A''            
     e(  4 -  5) =    -35.16588  eV     2   --> A'             
     e(  4 -  5) =    -35.16588  eV     2   --> A''            
     e(  6 -  6) =    -35.16012  eV     1   --> A'             
     e(  7 -  8) =    -34.69328  eV     2   --> A'             
     e(  7 -  8) =    -34.69328  eV     2   --> A''            
     e(  9 - 10) =    -34.49662  eV     2   --> A'             
     e(  9 - 10) =    -34.49662  eV     2   --> A''            
     e( 11 - 11) =    -34.48019  eV     1   --> A'             
     e( 12 - 12) =    -33.46691  eV     1   --> A'             
     e( 13 - 13) =    -33.04594  eV     1   --> A'             
     e( 14 - 14) =    -33.04565  eV     1   --> A''            
     e( 15 - 15) =    -14.61074  eV     1   --> A'             
     e( 16 - 16) =    -13.44054  eV     1   --> A'             
     e( 17 - 17) =     -3.83044  eV     1   --> A'             
     e( 18 - 18) =     -1.39395  eV     1   --> A'             
     e( 19 - 19) =      0.14219  eV     1   --> A'             
     e( 20 - 20) =      0.72029  eV     1   --> A'             
     e( 21 - 21) =      0.72893  eV     1   --> A''            
     e( 22 - 22) =      1.46789  eV     1   --> A'             
     e( 23 - 23) =      2.01908  eV     1   --> A''            
     e( 24 - 24) =      2.02807  eV     1   --> A'             
     e( 25 - 25) =      5.60512  eV     1   --> A'             
     e( 26 - 26) =      5.93826  eV     1   --> A'             
     e( 27 - 27) =      5.95518  eV     1   --> A''            
     e( 28 - 28) =      5.98822  eV     1   --> A'             
     e( 29 - 29) =      6.12071  eV     1   --> A'             
     e( 30 - 30) =      6.14034  eV     1   --> A''            
     e( 31 - 31) =      6.99951  eV     1   --> A'             
     e( 32 - 32) =      7.33991  eV     1   --> A'             
     e( 33 - 33) =      8.75595  eV     1   --> A'             
     e( 34 - 34) =      9.32543  eV     1   --> A'             
     e( 35 - 35) =      9.93031  eV     1   --> A'             
     e( 36 - 36) =     11.46068  eV     1   --> A'             
     e( 37 - 37) =     11.57583  eV     1   --> A'             
     e( 38 - 38) =     12.21654  eV     1   --> A'             
     e( 39 - 39) =     12.50353  eV     1   --> A'             
     e( 40 - 40) =     12.50533  eV     1   --> A''            
     e( 41 - 41) =     12.82491  eV     1   --> A'             
     e( 42 - 42) =     13.19486  eV     1   --> A'             
     e( 43 - 43) =     13.33872  eV     1   --> A''            
     e( 44 - 44) =     13.80239  eV     1   --> A'             
     e( 45 - 45) =     14.15387  eV     1   --> A'             
     e( 46 - 46) =     15.39973  eV     1   --> A'             

 **************************************************************************

 **************************************************************************

                    xk=(   0.02273,   0.01312,   0.00000  )

     Band symmetry, C_s (m)     point group:

     e(  1 -  1) =    -59.19628  eV     1   --> A'             
     e(  2 -  2) =    -35.27645  eV     1   --> A'             
     e(  3 -  3) =    -35.27609  eV     1   --> A''            
     e(  4 -  4) =    -35.16605  eV     1   --> A'             
     e(  5 -  5) =    -35.16589  eV     1   --> A''            
     e(  6 -  6) =    -35.16001  eV     1   --> A'             
     e(  7 -  7) =    -34.69329  eV     1   --> A'             
     e(  8 -  8) =    -34.69299  eV     1   --> A''            
     e(  9 - 10) =    -34.49670  eV     2   --> A'             
     e(  9 - 10) =    -34.49670  eV     2   --> A''            
     e( 11 - 11) =    -34.48007  eV     1   --> A'             
     e( 12 - 12) =    -33.46658  eV     1   --> A'             
     e( 13 - 13) =    -33.04706  eV     1   --> A'             
     e( 14 - 14) =    -33.04590  eV     1   --> A''            
     e( 15 - 15) =    -14.60448  eV     1   --> A'             
     e( 16 - 16) =    -13.43404  eV     1   --> A'             
     e( 17 - 17) =     -3.82245  eV     1   --> A'             
     e( 18 - 18) =     -1.38685  eV     1   --> A'             
     e( 19 - 19) =      0.14548  eV     1   --> A'             
     e( 20 - 20) =      0.69831  eV     1   --> A'             
     e( 21 - 21) =      0.73259  eV     1   --> A''            
     e( 22 - 22) =      1.45294  eV     1   --> A'             
     e( 23 - 23) =      2.01607  eV     1   --> A''            
     e( 24 - 24) =      2.05097  eV     1   --> A'             
     e( 25 - 25) =      5.59421  eV     1   --> A'             
     e( 26 - 26) =      5.88649  eV     1   --> A'             
     e( 27 - 27) =      5.94564  eV     1   --> A''            
     e( 28 - 28) =      5.99163  eV     1   --> A'             
     e( 29 - 29) =      6.05101  eV     1   --> A'             
     e( 30 - 30) =      6.12449  eV     1   --> A''            
     e( 31 - 31) =      7.00771  eV     1   --> A'             
     e( 32 - 32) =      7.35063  eV     1   --> A'             
     e( 33 - 33) =      8.76452  eV     1   --> A'             
     e( 34 - 34) =      9.34557  eV     1   --> A'             
     e( 35 - 35) =      9.97184  eV     1   --> A'             
     e( 36 - 36) =     11.47516  eV     1   --> A'             
     e( 37 - 37) =     11.61326  eV     1   --> A'             
     e( 38 - 38) =     12.09658  eV     1   --> A'             
     e( 39 - 39) =     12.51033  eV     1   --> A'             
     e( 40 - 40) =     12.52857  eV     1   --> A''            
     e( 41 - 41) =     12.94643  eV     1   --> A'             
     e( 42 - 42) =     13.00313  eV     1   --> A'             
     e( 43 - 43) =     13.36791  eV     1   --> A''            
     e( 44 - 44) =     14.03688  eV     1   --> A'             
     e( 45 - 45) =     14.18297  eV     1   --> A'             
     e( 46 - 46) =     15.41063  eV     1   --> A'             

 **************************************************************************

 **************************************************************************

                    xk=(   0.03409,   0.01968,   0.00000  )

     Band symmetry, C_s (m)     point group:

     e(  1 -  1) =    -59.19610  eV     1   --> A'             
     e(  2 -  2) =    -35.27651  eV     1   --> A'             
     e(  3 -  3) =    -35.27571  eV     1   --> A''            
     e(  4 -  4) =    -35.16633  eV     1   --> A'             
     e(  5 -  5) =    -35.16596  eV     1   --> A''            
     e(  6 -  6) =    -35.15981  eV     1   --> A'             
     e(  7 -  7) =    -34.69330  eV     1   --> A'             
     e(  8 -  8) =    -34.69264  eV     1   --> A''            
     e(  9 -  9) =    -34.49684  eV     1   --> A'             
     e( 10 - 10) =    -34.49665  eV     1   --> A''            
     e( 11 - 11) =    -34.47986  eV     1   --> A'             
     e( 12 - 12) =    -33.46603  eV     1   --> A'             
     e( 13 - 13) =    -33.04891  eV     1   --> A'             
     e( 14 - 14) =    -33.04631  eV     1   --> A''            
     e( 15 - 15) =    -14.59405  eV     1   --> A'             
     e( 16 - 16) =    -13.42321  eV     1   --> A'             
     e( 17 - 17) =     -3.80917  eV     1   --> A'             
     e( 18 - 18) =     -1.37502  eV     1   --> A'             
     e( 19 - 19) =      0.15085  eV     1   --> A'             
     e( 20 - 20) =      0.66245  eV     1   --> A'             
     e( 21 - 21) =      0.73856  eV     1   --> A''            
     e( 22 - 22) =      1.43020  eV     1   --> A'             
     e( 23 - 23) =      2.01124  eV     1   --> A''            
     e( 24 - 24) =      2.08618  eV     1   --> A'             
     e( 25 - 25) =      5.55994  eV     1   --> A'             
     e( 26 - 26) =      5.82317  eV     1   --> A'             
     e( 27 - 27) =      5.91799  eV     1   --> A'             
     e( 28 - 28) =      5.92965  eV     1   --> A''            
     e( 29 - 29) =      6.01841  eV     1   --> A'             
     e( 30 - 30) =      6.09868  eV     1   --> A''            
     e( 31 - 31) =      7.02128  eV     1   --> A'             
     e( 32 - 32) =      7.36721  eV     1   --> A'             
     e( 33 - 33) =      8.77860  eV     1   --> A'             
     e( 34 - 34) =      9.37409  eV     1   --> A'             
     e( 35 - 35) =     10.03991  eV     1   --> A'             
     e( 36 - 36) =     11.47283  eV     1   --> A'             
     e( 37 - 37) =     11.67783  eV     1   --> A'             
     e( 38 - 38) =     11.98817  eV     1   --> A'             
     e( 39 - 39) =     12.51472  eV     1   --> A'             
     e( 40 - 40) =     12.56708  eV     1   --> A''            
     e( 41 - 41) =     12.76617  eV     1   --> A'             
     e( 42 - 42) =     13.14042  eV     1   --> A'             
     e( 43 - 43) =     13.41621  eV     1   --> A''            
     e( 44 - 44) =     14.15389  eV     1   --> A'             
     e( 45 - 45) =     14.36456  eV     1   --> A'             
     e( 46 - 46) =     15.42862  eV     1   --> A'             

 **************************************************************************

 **************************************************************************

                    xk=(   0.04545,   0.02624,   0.00000  )

     Band symmetry, C_s (m)     point group:

     e(  1 -  1) =    -59.19584  eV     1   --> A'             
     e(  2 -  2) =    -35.27660  eV     1   --> A'             
     e(  3 -  3) =    -35.27517  eV     1   --> A''            
     e(  4 -  4) =    -35.16671  eV     1   --> A'             
     e(  5 -  5) =    -35.16606  eV     1   --> A''            
     e(  6 -  6) =    -35.15954  eV     1   --> A'             
     e(  7 -  7) =    -34.69332  eV     1   --> A'             
     e(  8 -  8) =    -34.69214  eV     1   --> A''            
     e(  9 -  9) =    -34.49703  eV     1   --> A'             
     e( 10 - 10) =    -34.49670  eV     1   --> A''            
     e( 11 - 11) =    -34.47957  eV     1   --> A'             
     e( 12 - 12) =    -33.46526  eV     1   --> A'             
     e( 13 - 13) =    -33.05149  eV     1   --> A'             
     e( 14 - 14) =    -33.04689  eV     1   --> A''            
     e( 15 - 15) =    -14.57948  eV     1   --> A'             
     e( 16 - 16) =    -13.40808  eV     1   --> A'             
     e( 17 - 17) =     -3.79065  eV     1   --> A'             
     e( 18 - 18) =     -1.35849  eV     1   --> A'             
     e( 19 - 19) =      0.15803  eV     1   --> A'             
     e( 20 - 20) =      0.61379  eV     1   --> A'             
     e( 21 - 21) =      0.74664  eV     1   --> A''            
     e( 22 - 22) =      1.40171  eV     1   --> A'             
     e( 23 - 23) =      2.00484  eV     1   --> A''            
     e( 24 - 24) =      2.13062  eV     1   --> A'             
     e( 25 - 25) =      5.47596  eV     1   --> A'             
     e( 26 - 26) =      5.76310  eV     1   --> A'             
     e( 27 - 27) =      5.78132  eV     1   --> A'             
     e( 28 - 28) =      5.90699  eV     1   --> A''            
     e( 29 - 29) =      6.03382  eV     1   --> A'             
     e( 30 - 30) =      6.06387  eV     1   --> A''            
     e( 31 - 31) =      7.04013  eV     1   --> A'             
     e( 32 - 32) =      7.38849  eV     1   --> A'             
     e( 33 - 33) =      8.79802  eV     1   --> A'             
     e( 34 - 34) =      9.40634  eV     1   --> A'             
     e( 35 - 35) =     10.13056  eV     1   --> A'             
     e( 36 - 36) =     11.44090  eV     1   --> A'             
     e( 37 - 37) =     11.72874  eV     1   --> A'             
     e( 38 - 38) =     11.94524  eV     1   --> A'             
     e( 39 - 39) =     12.50730  eV     1   --> A'             
     e( 40 - 40) =     12.59801  eV     1   --> A'             
     e( 41 - 41) =     12.62055  eV     1   --> A''            
     e( 42 - 42) =     13.29919  eV     1   --> A'             
     e( 43 - 43) =     13.48311  eV     1   --> A''            
     e( 44 - 44) =     14.19786  eV     1   --> A'             
     e( 45 - 45) =     14.64890  eV     1   --> A'             
     e( 46 - 46) =     15.45298  eV     1   --> A'             

 **************************************************************************

 **************************************************************************

                    xk=(   0.05682,   0.03280,   0.00000  )

     Band symmetry, C_s (m)     point group:

     e(  1 -  1) =    -59.19552  eV     1   --> A'             
     e(  2 -  2) =    -35.27671  eV     1   --> A'             
     e(  3 -  3) =    -35.27449  eV     1   --> A''            
     e(  4 -  4) =    -35.16720  eV     1   --> A'             
     e(  5 -  5) =    -35.16619  eV     1   --> A''            
     e(  6 -  6) =    -35.15920  eV     1   --> A'             
     e(  7 -  7) =    -34.69335  eV     1   --> A'             
     e(  8 -  8) =    -34.69151  eV     1   --> A''            
     e(  9 -  9) =    -34.49727  eV     1   --> A'             
     e( 10 - 10) =    -34.49676  eV     1   --> A''            
     e( 11 - 11) =    -34.47920  eV     1   --> A'             
     e( 12 - 12) =    -33.46429  eV     1   --> A'             
     e( 13 - 13) =    -33.05478  eV     1   --> A'             
     e( 14 - 14) =    -33.04762  eV     1   --> A''            
     e( 15 - 15) =    -14.56078  eV     1   --> A'             
     e( 16 - 16) =    -13.38866  eV     1   --> A'             
     e( 17 - 17) =     -3.76697  eV     1   --> A'             
     e( 18 - 18) =     -1.33728  eV     1   --> A'             
     e( 19 - 19) =      0.16656  eV     1   --> A'             
     e( 20 - 20) =      0.55374  eV     1   --> A'             
     e( 21 - 21) =      0.75655  eV     1   --> A''            
     e( 22 - 22) =      1.36909  eV     1   --> A'             
     e( 23 - 23) =      1.99722  eV     1   --> A''            
     e( 24 - 24) =      2.18142  eV     1   --> A'             
     e( 25 - 25) =      5.33583  eV     1   --> A'             
     e( 26 - 26) =      5.57876  eV     1   --> A'             
     e( 27 - 27) =      5.77059  eV     1   --> A'             
     e( 28 - 28) =      5.87717  eV     1   --> A''            
     e( 29 - 29) =      6.02151  eV     1   --> A''            
     e( 30 - 30) =      6.05659  eV     1   --> A'             
     e( 31 - 31) =      7.06421  eV     1   --> A'             
     e( 32 - 32) =      7.41364  eV     1   --> A'             
     e( 33 - 33) =      8.82260  eV     1   --> A'             
     e( 34 - 34) =      9.43918  eV     1   --> A'             
     e( 35 - 35) =     10.23513  eV     1   --> A'             
     e( 36 - 36) =     11.37672  eV     1   --> A'             
     e( 37 - 37) =     11.73663  eV     1   --> A'             
     e( 38 - 38) =     11.95984  eV     1   --> A'             
     e( 39 - 39) =     12.45145  eV     1   --> A'             
     e( 40 - 40) =     12.55259  eV     1   --> A'             
     e( 41 - 41) =     12.68855  eV     1   --> A''            
     e( 42 - 42) =     13.43108  eV     1   --> A'             
     e( 43 - 43) =     13.56792  eV     1   --> A''            
     e( 44 - 44) =     14.25808  eV     1   --> A'             
     e( 45 - 45) =     14.95240  eV     1   --> A'             
     e( 46 - 46) =     15.48052  eV     1   --> A'             

 **************************************************************************

 **************************************************************************

                    xk=(   0.06818,   0.03936,   0.00000  )

     Band symmetry, C_s (m)     point group:

     e(  1 -  1) =    -59.19513  eV     1   --> A'             
     e(  2 -  2) =    -35.27685  eV     1   --> A'             
     e(  3 -  3) =    -35.27367  eV     1   --> A''            
     e(  4 -  4) =    -35.16778  eV     1   --> A'             
     e(  5 -  5) =    -35.16634  eV     1   --> A''            
     e(  6 -  6) =    -35.15879  eV     1   --> A'             
     e(  7 -  7) =    -34.69338  eV     1   --> A'             
     e(  8 -  8) =    -34.69075  eV     1   --> A''            
     e(  9 -  9) =    -34.49757  eV     1   --> A'             
     e( 10 - 10) =    -34.49684  eV     1   --> A''            
     e( 11 - 11) =    -34.47875  eV     1   --> A'             
     e( 12 - 12) =    -33.46311  eV     1   --> A'             
     e( 13 - 13) =    -33.05876  eV     1   --> A'             
     e( 14 - 14) =    -33.04851  eV     1   --> A''            
     e( 15 - 15) =    -14.53799  eV     1   --> A'             
     e( 16 - 16) =    -13.36498  eV     1   --> A'             
     e( 17 - 17) =     -3.73824  eV     1   --> A'             
     e( 18 - 18) =     -1.31143  eV     1   --> A'             
     e( 19 - 19) =      0.17539  eV     1   --> A'             
     e( 20 - 20) =      0.48422  eV     1   --> A'             
     e( 21 - 21) =      0.76790  eV     1   --> A''            
     e( 22 - 22) =      1.33345  eV     1   --> A'             
     e( 23 - 23) =      1.98888  eV     1   --> A''            
     e( 24 - 24) =      2.23616  eV     1   --> A'             
     e( 25 - 25) =      5.15422  eV     1   --> A'             
     e( 26 - 26) =      5.37583  eV     1   --> A'             
     e( 27 - 27) =      5.78081  eV     1   --> A'             
     e( 28 - 28) =      5.83927  eV     1   --> A''            
     e( 29 - 29) =      5.97369  eV     1   --> A''            
     e( 30 - 30) =      6.08489  eV     1   --> A'             
     e( 31 - 31) =      7.09348  eV     1   --> A'             
     e( 32 - 32) =      7.44224  eV     1   --> A'             
     e( 33 - 33) =      8.85224  eV     1   --> A'             
     e( 34 - 34) =      9.47122  eV     1   --> A'             
     e( 35 - 35) =     10.33856  eV     1   --> A'             
     e( 36 - 36) =     11.30067  eV     1   --> A'             
     e( 37 - 37) =     11.73480  eV     1   --> A'             
     e( 38 - 38) =     11.91212  eV     1   --> A'             
     e( 39 - 39) =     12.49111  eV     1   --> A'             
     e( 40 - 40) =     12.55805  eV     1   --> A'             
     e( 41 - 41) =     12.77058  eV     1   --> A''            
     e( 42 - 42) =     13.51802  eV     1   --> A'             
     e( 43 - 43) =     13.66986  eV     1   --> A''            
     e( 44 - 44) =     14.34831  eV     1   --> A'             
     e( 45 - 45) =     15.26577  eV     1   --> A'             
     e( 46 - 46) =     15.49662  eV     1   --> A'             

 **************************************************************************

 **************************************************************************

                    xk=(   0.07955,   0.04593,   0.00000  )

     Band symmetry, C_s (m)     point group:

     e(  1 -  1) =    -59.19467  eV     1   --> A'             
     e(  2 -  2) =    -35.27702  eV     1   --> A'             
     e(  3 -  3) =    -35.27270  eV     1   --> A''            
     e(  4 -  4) =    -35.16846  eV     1   --> A'             
     e(  5 -  5) =    -35.16652  eV     1   --> A''            
     e(  6 -  6) =    -35.15831  eV     1   --> A'             
     e(  7 -  7) =    -34.69342  eV     1   --> A'             
     e(  8 -  8) =    -34.68986  eV     1   --> A''            
     e(  9 -  9) =    -34.49792  eV     1   --> A'             
     e( 10 - 10) =    -34.49693  eV     1   --> A''            
     e( 11 - 11) =    -34.47822  eV     1   --> A'             
     e( 12 - 12) =    -33.46173  eV     1   --> A'             
     e( 13 - 13) =    -33.06342  eV     1   --> A'             
     e( 14 - 14) =    -33.04955  eV     1   --> A''            
     e( 15 - 15) =    -14.51112  eV     1   --> A'             
     e( 16 - 16) =    -13.33706  eV     1   --> A'             
     e( 17 - 17) =     -3.70458  eV     1   --> A'             
     e( 18 - 18) =     -1.28097  eV     1   --> A'             
     e( 19 - 19) =      0.18170  eV     1   --> A'             
     e( 20 - 20) =      0.40877  eV     1   --> A'             
     e( 21 - 21) =      0.78022  eV     1   --> A''            
     e( 22 - 22) =      1.29552  eV     1   --> A'             
     e( 23 - 23) =      1.98041  eV     1   --> A''            
     e( 24 - 24) =      2.29274  eV     1   --> A'             
     e( 25 - 25) =      4.94009  eV     1   --> A'             
     e( 26 - 26) =      5.16718  eV     1   --> A'             
     e( 27 - 27) =      5.79199  eV     1   --> A''            
     e( 28 - 28) =      5.80257  eV     1   --> A'             
     e( 29 - 29) =      5.92301  eV     1   --> A''            
     e( 30 - 30) =      6.11843  eV     1   --> A'             
     e( 31 - 31) =      7.12791  eV     1   --> A'             
     e( 32 - 32) =      7.47414  eV     1   --> A'             
     e( 33 - 33) =      8.88680  eV     1   --> A'             
     e( 34 - 34) =      9.50204  eV     1   --> A'             
     e( 35 - 35) =     10.41774  eV     1   --> A'             
     e( 36 - 36) =     11.24594  eV     1   --> A'             
     e( 37 - 37) =     11.68320  eV     1   --> A'             
     e( 38 - 38) =     11.85290  eV     1   --> A'             
     e( 39 - 39) =     12.56117  eV     1   --> A'             
     e( 40 - 40) =     12.64502  eV     1   --> A'             
     e( 41 - 41) =     12.86606  eV     1   --> A''            
     e( 42 - 42) =     13.55532  eV     1   --> A'             
     e( 43 - 43) =     13.78801  eV     1   --> A''            
     e( 44 - 44) =     14.46550  eV     1   --> A'             
     e( 45 - 45) =     15.45909  eV     1   --> A'             
     e( 46 - 46) =     15.57091  eV     1   --> A'             

 **************************************************************************

 **************************************************************************

                    xk=(   0.09091,   0.05249,   0.00000  )

     Band symmetry, C_s (m)     point group:

     e(  1 -  1) =    -59.19414  eV     1   --> A'             
     e(  2 -  2) =    -35.27721  eV     1   --> A'             
     e(  3 -  3) =    -35.27160  eV     1   --> A''            
     e(  4 -  4) =    -35.16923  eV     1   --> A'             
     e(  5 -  5) =    -35.16673  eV     1   --> A''            
     e(  6 -  6) =    -35.15777  eV     1   --> A'             
     e(  7 -  7) =    -34.69347  eV     1   --> A'             
     e(  8 -  8) =    -34.68884  eV     1   --> A''            
     e(  9 -  9) =    -34.49832  eV     1   --> A'             
     e( 10 - 10) =    -34.49703  eV     1   --> A''            
     e( 11 - 11) =    -34.47762  eV     1   --> A'             
     e( 12 - 12) =    -33.46015  eV     1   --> A'             
     e( 13 - 13) =    -33.06872  eV     1   --> A'             
     e( 14 - 14) =    -33.05074  eV     1   --> A''            
     e( 15 - 15) =    -14.48024  eV     1   --> A'             
     e( 16 - 16) =    -13.30495  eV     1   --> A'             
     e( 17 - 17) =     -3.66614  eV     1   --> A'             
     e( 18 - 18) =     -1.24597  eV     1   --> A'             
     e( 19 - 19) =      0.17596  eV     1   --> A'             
     e( 20 - 20) =      0.33743  eV     1   --> A'             
     e( 21 - 21) =      0.79293  eV     1   --> A''            
     e( 22 - 22) =      1.25581  eV     1   --> A'             
     e( 23 - 23) =      1.97252  eV     1   --> A''            
     e( 24 - 24) =      2.34923  eV     1   --> A'             
     e( 25 - 25) =      4.69764  eV     1   --> A'             
     e( 26 - 26) =      4.96304  eV     1   --> A'             
     e( 27 - 27) =      5.73423  eV     1   --> A''            
     e( 28 - 28) =      5.83212  eV     1   --> A'             
     e( 29 - 29) =      5.87192  eV     1   --> A''            
     e( 30 - 30) =      6.15710  eV     1   --> A'             
     e( 31 - 31) =      7.16745  eV     1   --> A'             
     e( 32 - 32) =      7.50933  eV     1   --> A'             
     e( 33 - 33) =      8.92615  eV     1   --> A'             
     e( 34 - 34) =      9.53137  eV     1   --> A'             
     e( 35 - 35) =     10.44699  eV     1   --> A'             
     e( 36 - 36) =     11.23922  eV     1   --> A'             
     e( 37 - 37) =     11.54323  eV     1   --> A'             
     e( 38 - 38) =     11.87711  eV     1   --> A'             
     e( 39 - 39) =     12.57056  eV     1   --> A'             
     e( 40 - 40) =     12.82796  eV     1   --> A'             
     e( 41 - 41) =     12.97435  eV     1   --> A''            
     e( 42 - 42) =     13.55802  eV     1   --> A'             
     e( 43 - 43) =     13.92139  eV     1   --> A''            
     e( 44 - 44) =     14.58861  eV     1   --> A'             
     e( 45 - 45) =     15.38681  eV     1   --> A'             
     e( 46 - 46) =     15.67805  eV     1   --> A'             

 **************************************************************************

 **************************************************************************

                    xk=(   0.10227,   0.05905,   0.00000  )

     Band symmetry, C_s (m)     point group:

     e(  1 -  1) =    -59.19356  eV     1   --> A'             
     e(  2 -  2) =    -35.27743  eV     1   --> A'             
     e(  3 -  3) =    -35.27037  eV     1   --> A''            
     e(  4 -  4) =    -35.17008  eV     1   --> A'             
     e(  5 -  5) =    -35.16696  eV     1   --> A''            
     e(  6 -  6) =    -35.15716  eV     1   --> A'             
     e(  7 -  7) =    -34.69353  eV     1   --> A'             
     e(  8 -  8) =    -34.68770  eV     1   --> A''            
     e(  9 -  9) =    -34.49876  eV     1   --> A'             
     e( 10 - 10) =    -34.49714  eV     1   --> A''            
     e( 11 - 11) =    -34.47694  eV     1   --> A'             
     e( 12 - 12) =    -33.45840  eV     1   --> A'             
     e( 13 - 13) =    -33.07465  eV     1   --> A'             
     e( 14 - 14) =    -33.05206  eV     1   --> A''            
     e( 15 - 15) =    -14.44537  eV     1   --> A'             
     e( 16 - 16) =    -13.26869  eV     1   --> A'             
     e( 17 - 17) =     -3.62311  eV     1   --> A'             
     e( 18 - 18) =     -1.20649  eV     1   --> A'             
     e( 19 - 19) =      0.13271  eV     1   --> A'             
     e( 20 - 20) =      0.29593  eV     1   --> A'             
     e( 21 - 21) =      0.80532  eV     1   --> A''            
     e( 22 - 22) =      1.21475  eV     1   --> A'             
     e( 23 - 23) =      1.96607  eV     1   --> A''            
     e( 24 - 24) =      2.40372  eV     1   --> A'             
     e( 25 - 25) =      4.43244  eV     1   --> A'             
     e( 26 - 26) =      4.76879  eV     1   --> A'             
     e( 27 - 27) =      5.66611  eV     1   --> A''            
     e( 28 - 28) =      5.82172  eV     1   --> A''            
     e( 29 - 29) =      5.86783  eV     1   --> A'             
     e( 30 - 30) =      6.20082  eV     1   --> A'             
     e( 31 - 31) =      7.21208  eV     1   --> A'             
     e( 32 - 32) =      7.54786  eV     1   --> A'             
     e( 33 - 33) =      8.97011  eV     1   --> A'             
     e( 34 - 34) =      9.55852  eV     1   --> A'             
     e( 35 - 35) =     10.41929  eV     1   --> A'             
     e( 36 - 36) =     11.26517  eV     1   --> A'             
     e( 37 - 37) =     11.40031  eV     1   --> A'             
     e( 38 - 38) =     11.94080  eV     1   --> A'             
     e( 39 - 39) =     12.57514  eV     1   --> A'             
     e( 40 - 40) =     12.99675  eV     1   --> A'             
     e( 41 - 41) =     13.09478  eV     1   --> A''            
     e( 42 - 42) =     13.56391  eV     1   --> A'             
     e( 43 - 43) =     14.06900  eV     1   --> A''            
     e( 44 - 44) =     14.68197  eV     1   --> A'             
     e( 45 - 45) =     15.30888  eV     1   --> A'             
     e( 46 - 46) =     15.74078  eV     1   --> A'             

 **************************************************************************

 **************************************************************************

                    xk=(   0.11364,   0.06561,   0.00000  )

     Band symmetry, C_s (m)     point group:

     e(  1 -  1) =    -59.19291  eV     1   --> A'             
     e(  2 -  2) =    -35.27767  eV     1   --> A'             
     e(  3 -  3) =    -35.26901  eV     1   --> A''            
     e(  4 -  4) =    -35.17102  eV     1   --> A'             
     e(  5 -  5) =    -35.16721  eV     1   --> A''            
     e(  6 -  6) =    -35.15649  eV     1   --> A'             
     e(  7 -  7) =    -34.69360  eV     1   --> A'             
     e(  8 -  8) =    -34.68645  eV     1   --> A''            
     e(  9 -  9) =    -34.49925  eV     1   --> A'             
     e( 10 - 10) =    -34.49726  eV     1   --> A''            
     e( 11 - 11) =    -34.47619  eV     1   --> A'             
     e( 12 - 12) =    -33.45646  eV     1   --> A'             
     e( 13 - 13) =    -33.08116  eV     1   --> A'             
     e( 14 - 14) =    -33.05352  eV     1   --> A''            
     e( 15 - 15) =    -14.40659  eV     1   --> A'             
     e( 16 - 16) =    -13.22833  eV     1   --> A'             
     e( 17 - 17) =     -3.57570  eV     1   --> A'             
     e( 18 - 18) =     -1.16265  eV     1   --> A'             
     e( 19 - 19) =      0.04458  eV     1   --> A'             
     e( 20 - 20) =      0.29175  eV     1   --> A'             
     e( 21 - 21) =      0.81662  eV     1   --> A''            
     e( 22 - 22) =      1.17279  eV     1   --> A'             
     e( 23 - 23) =      1.96198  eV     1   --> A''            
     e( 24 - 24) =      2.45406  eV     1   --> A'             
     e( 25 - 25) =      4.15085  eV     1   --> A'             
     e( 26 - 26) =      4.58718  eV     1   --> A'             
     e( 27 - 27) =      5.58907  eV     1   --> A''            
     e( 28 - 28) =      5.77236  eV     1   --> A''            
     e( 29 - 29) =      5.90894  eV     1   --> A'             
     e( 30 - 30) =      6.24952  eV     1   --> A'             
     e( 31 - 31) =      7.26173  eV     1   --> A'             
     e( 32 - 32) =      7.58977  eV     1   --> A'             
     e( 33 - 33) =      9.01844  eV     1   --> A'             
     e( 34 - 34) =      9.58187  eV     1   --> A'             
     e( 35 - 35) =     10.35369  eV     1   --> A'             
     e( 36 - 36) =     11.17057  eV     1   --> A'             
     e( 37 - 37) =     11.40465  eV     1   --> A'             
     e( 38 - 38) =     12.03123  eV     1   --> A'             
     e( 39 - 39) =     12.57215  eV     1   --> A'             
     e( 40 - 40) =     13.08904  eV     1   --> A'             
     e( 41 - 41) =     13.22665  eV     1   --> A''            
     e( 42 - 42) =     13.63835  eV     1   --> A'             
     e( 43 - 43) =     14.22979  eV     1   --> A''            
     e( 44 - 44) =     14.69994  eV     1   --> A'             
     e( 45 - 45) =     15.27203  eV     1   --> A'             
     e( 46 - 46) =     15.76224  eV     1   --> A'             

 **************************************************************************

 **************************************************************************

                    xk=(   0.12500,   0.07217,   0.00000  )

     Band symmetry, C_s (m)     point group:

     e(  1 -  1) =    -59.19221  eV     1   --> A'             
     e(  2 -  2) =    -35.27795  eV     1   --> A'             
     e(  3 -  3) =    -35.26754  eV     1   --> A''            
     e(  4 -  4) =    -35.17203  eV     1   --> A'             
     e(  5 -  5) =    -35.16749  eV     1   --> A''            
     e(  6 -  6) =    -35.15576  eV     1   --> A'             
     e(  7 -  7) =    -34.69367  eV     1   --> A'             
     e(  8 -  8) =    -34.68509  eV     1   --> A''            
     e(  9 -  9) =    -34.49978  eV     1   --> A'             
     e( 10 - 10) =    -34.49740  eV     1   --> A''            
     e( 11 - 11) =    -34.47538  eV     1   --> A'             
     e( 12 - 12) =    -33.45437  eV     1   --> A'             
     e( 13 - 13) =    -33.08822  eV     1   --> A'             
     e( 14 - 14) =    -33.05510  eV     1   --> A''            
     e( 15 - 15) =    -14.36395  eV     1   --> A'             
     e( 16 - 16) =    -13.18393  eV     1   --> A'             
     e( 17 - 17) =     -3.52416  eV     1   --> A'             
     e( 18 - 18) =     -1.11457  eV     1   --> A'             
     e( 19 - 19) =     -0.06709  eV     1   --> A'             
     e( 20 - 20) =      0.30346  eV     1   --> A'             
     e( 21 - 21) =      0.82599  eV     1   --> A''            
     e( 22 - 22) =      1.13038  eV     1   --> A'             
     e( 23 - 23) =      1.96127  eV     1   --> A''            
     e( 24 - 24) =      2.49778  eV     1   --> A'             
     e( 25 - 25) =      3.85808  eV     1   --> A'             
     e( 26 - 26) =      4.42116  eV     1   --> A'             
     e( 27 - 27) =      5.50501  eV     1   --> A''            
     e( 28 - 28) =      5.72329  eV     1   --> A''            
     e( 29 - 29) =      5.95503  eV     1   --> A'             
     e( 30 - 30) =      6.30315  eV     1   --> A'             
     e( 31 - 31) =      7.31633  eV     1   --> A'             
     e( 32 - 32) =      7.63510  eV     1   --> A'             
     e( 33 - 33) =      9.07076  eV     1   --> A'             
     e( 34 - 34) =      9.59833  eV     1   --> A'             
     e( 35 - 35) =     10.27427  eV     1   --> A'             
     e( 36 - 36) =     11.01001  eV     1   --> A'             
     e( 37 - 37) =     11.47675  eV     1   --> A'             
     e( 38 - 38) =     12.14679  eV     1   --> A'             
     e( 39 - 39) =     12.55724  eV     1   --> A'             
     e( 40 - 40) =     13.08928  eV     1   --> A'             
     e( 41 - 41) =     13.36925  eV     1   --> A''            
     e( 42 - 42) =     13.80571  eV     1   --> A'             
     e( 43 - 43) =     14.40268  eV     1   --> A''            
     e( 44 - 44) =     14.62707  eV     1   --> A'             
     e( 45 - 45) =     15.29018  eV     1   --> A'             
     e( 46 - 46) =     15.71582  eV     1   --> A'             

 **************************************************************************

 **************************************************************************

                    xk=(   0.13636,   0.07873,   0.00000  )

     Band symmetry, C_s (m)     point group:

     e(  1 -  1) =    -59.19146  eV     1   --> A'             
     e(  2 -  2) =    -35.27824  eV     1   --> A'             
     e(  3 -  3) =    -35.26596  eV     1   --> A''            
     e(  4 -  4) =    -35.17311  eV     1   --> A'             
     e(  5 -  5) =    -35.16779  eV     1   --> A''            
     e(  6 -  6) =    -35.15498  eV     1   --> A'             
     e(  7 -  7) =    -34.69375  eV     1   --> A'             
     e(  8 -  8) =    -34.68363  eV     1   --> A''            
     e(  9 -  9) =    -34.50035  eV     1   --> A'             
     e( 10 - 10) =    -34.49754  eV     1   --> A''            
     e( 11 - 11) =    -34.47450  eV     1   --> A'             
     e( 12 - 12) =    -33.45212  eV     1   --> A'             
     e( 13 - 13) =    -33.09579  eV     1   --> A'             
     e( 14 - 14) =    -33.05680  eV     1   --> A''            
     e( 15 - 15) =    -14.31753  eV     1   --> A'             
     e( 16 - 16) =    -13.13557  eV     1   --> A'             
     e( 17 - 17) =     -3.46875  eV     1   --> A'             
     e( 18 - 18) =     -1.06245  eV     1   --> A'             
     e( 19 - 19) =     -0.19215  eV     1   --> A'             
     e( 20 - 20) =      0.32079  eV     1   --> A'             
     e( 21 - 21) =      0.83255  eV     1   --> A''            
     e( 22 - 22) =      1.08802  eV     1   --> A'             
     e( 23 - 23) =      1.96496  eV     1   --> A''            
     e( 24 - 24) =      2.53197  eV     1   --> A'             
     e( 25 - 25) =      3.55793  eV     1   --> A'             
     e( 26 - 26) =      4.27450  eV     1   --> A'             
     e( 27 - 27) =      5.41567  eV     1   --> A''            
     e( 28 - 28) =      5.67405  eV     1   --> A''            
     e( 29 - 29) =      6.00584  eV     1   --> A'             
     e( 30 - 30) =      6.36163  eV     1   --> A'             
     e( 31 - 31) =      7.37582  eV     1   --> A'             
     e( 32 - 32) =      7.68383  eV     1   --> A'             
     e( 33 - 33) =      9.12653  eV     1   --> A'             
     e( 34 - 34) =      9.60280  eV     1   --> A'             
     e( 35 - 35) =     10.19934  eV     1   --> A'             
     e( 36 - 36) =     10.84766  eV     1   --> A'             
     e( 37 - 37) =     11.53294  eV     1   --> A'             
     e( 38 - 38) =     12.27963  eV     1   --> A'             
     e( 39 - 39) =     12.53099  eV     1   --> A'             
     e( 40 - 40) =     13.05568  eV     1   --> A'             
     e( 41 - 41) =     13.52184  eV     1   --> A''            
     e( 42 - 42) =     14.00849  eV     1   --> A'             
     e( 43 - 43) =     14.51001  eV     1   --> A'             
     e( 44 - 44) =     14.58649  eV     1   --> A''            
     e( 45 - 45) =     15.32168  eV     1   --> A'             
     e( 46 - 46) =     15.64582  eV     1   --> A'             

 **************************************************************************

 **************************************************************************

                    xk=(   0.14773,   0.08529,   0.00000  )

     Band symmetry, C_s (m)     point group:

     e(  1 -  1) =    -59.19066  eV     1   --> A'             
     e(  2 -  2) =    -35.27857  eV     1   --> A'             
     e(  3 -  3) =    -35.26428  eV     1   --> A''            
     e(  4 -  4) =    -35.17425  eV     1   --> A'             
     e(  5 -  5) =    -35.16810  eV     1   --> A''            
     e(  6 -  6) =    -35.15414  eV     1   --> A'             
     e(  7 -  7) =    -34.69385  eV     1   --> A'             
     e(  8 -  8) =    -34.68207  eV     1   --> A''            
     e(  9 -  9) =    -34.50095  eV     1   --> A'             
     e( 10 - 10) =    -34.49770  eV     1   --> A''            
     e( 11 - 11) =    -34.47356  eV     1   --> A'             
     e( 12 - 12) =    -33.44972  eV     1   --> A'             
     e( 13 - 13) =    -33.10383  eV     1   --> A'             
     e( 14 - 14) =    -33.05861  eV     1   --> A''            
     e( 15 - 15) =    -14.26742  eV     1   --> A'             
     e( 16 - 16) =    -13.08332  eV     1   --> A'             
     e( 17 - 17) =     -3.40980  eV     1   --> A'             
     e( 18 - 18) =     -1.00664  eV     1   --> A'             
     e( 19 - 19) =     -0.32736  eV     1   --> A'             
     e( 20 - 20) =      0.34037  eV     1   --> A'             
     e( 21 - 21) =      0.83548  eV     1   --> A''            
     e( 22 - 22) =      1.04627  eV     1   --> A'             
     e( 23 - 23) =      1.97404  eV     1   --> A''            
     e( 24 - 24) =      2.55335  eV     1   --> A'             
     e( 25 - 25) =      3.25335  eV     1   --> A'             
     e( 26 - 26) =      4.15152  eV     1   --> A'             
     e( 27 - 27) =      5.32244  eV     1   --> A''            
     e( 28 - 28) =      5.62446  eV     1   --> A''            
     e( 29 - 29) =      6.06119  eV     1   --> A'             
     e( 30 - 30) =      6.42489  eV     1   --> A'             
     e( 31 - 31) =      7.44009  eV     1   --> A'             
     e( 32 - 32) =      7.73592  eV     1   --> A'             
     e( 33 - 33) =      9.18482  eV     1   --> A'             
     e( 34 - 34) =      9.58882  eV     1   --> A'             
     e( 35 - 35) =     10.14248  eV     1   --> A'             
     e( 36 - 36) =     10.68967  eV     1   --> A'             
     e( 37 - 37) =     11.55342  eV     1   --> A'             
     e( 38 - 38) =     12.38831  eV     1   --> A'             
     e( 39 - 39) =     12.53020  eV     1   --> A'             
     e( 40 - 40) =     13.03063  eV     1   --> A'             
     e( 41 - 41) =     13.68365  eV     1   --> A''            
     e( 42 - 42) =     14.13008  eV     1   --> A'             
     e( 43 - 43) =     14.46679  eV     1   --> A'             
     e( 44 - 44) =     14.77972  eV     1   --> A''            
     e( 45 - 45) =     15.30821  eV     1   --> A'             
     e( 46 - 46) =     15.59072  eV     1   --> A'             

 **************************************************************************

 **************************************************************************

                    xk=(   0.15909,   0.09185,   0.00000  )

     Band symmetry, C_s (m)     point group:

     e(  1 -  1) =    -59.18981  eV     1   --> A'             
     e(  2 -  2) =    -35.27892  eV     1   --> A'             
     e(  3 -  3) =    -35.26250  eV     1   --> A''            
     e(  4 -  4) =    -35.17545  eV     1   --> A'             
     e(  5 -  5) =    -35.16843  eV     1   --> A''            
     e(  6 -  6) =    -35.15326  eV     1   --> A'             
     e(  7 -  7) =    -34.69395  eV     1   --> A'             
     e(  8 -  8) =    -34.68043  eV     1   --> A''            
     e(  9 -  9) =    -34.50159  eV     1   --> A'             
     e( 10 - 10) =    -34.49786  eV     1   --> A''            
     e( 11 - 11) =    -34.47257  eV     1   --> A'             
     e( 12 - 12) =    -33.44720  eV     1   --> A'             
     e( 13 - 13) =    -33.11231  eV     1   --> A'             
     e( 14 - 14) =    -33.06052  eV     1   --> A''            
     e( 15 - 15) =    -14.21370  eV     1   --> A'             
     e( 16 - 16) =    -13.02728  eV     1   --> A'             
     e( 17 - 17) =     -3.34768  eV     1   --> A'             
     e( 18 - 18) =     -0.94788  eV     1   --> A'             
     e( 19 - 19) =     -0.47094  eV     1   --> A'             
     e( 20 - 20) =      0.36068  eV     1   --> A'             
     e( 21 - 21) =      0.83411  eV     1   --> A''            
     e( 22 - 22) =      1.00578  eV     1   --> A'             
     e( 23 - 23) =      1.98935  eV     1   --> A''            
     e( 24 - 24) =      2.55812  eV     1   --> A'             
     e( 25 - 25) =      2.94748  eV     1   --> A'             
     e( 26 - 26) =      4.05624  eV     1   --> A'             
     e( 27 - 27) =      5.22648  eV     1   --> A''            
     e( 28 - 28) =      5.57451  eV     1   --> A''            
     e( 29 - 29) =      6.12095  eV     1   --> A'             
     e( 30 - 30) =      6.49284  eV     1   --> A'             
     e( 31 - 31) =      7.50902  eV     1   --> A'             
     e( 32 - 32) =      7.79127  eV     1   --> A'             
     e( 33 - 33) =      9.24373  eV     1   --> A'             
     e( 34 - 34) =      9.55281  eV     1   --> A'             
     e( 35 - 35) =     10.11147  eV     1   --> A'             
     e( 36 - 36) =     10.53812  eV     1   --> A'             
     e( 37 - 37) =     11.52531  eV     1   --> A'             
     e( 38 - 38) =     12.39690  eV     1   --> A'             
     e( 39 - 39) =     12.63073  eV     1   --> A'             
     e( 40 - 40) =     13.02914  eV     1   --> A'             
     e( 41 - 41) =     13.85390  eV     1   --> A''            
     e( 42 - 42) =     14.04582  eV     1   --> A'             
     e( 43 - 43) =     14.62634  eV     1   --> A'             
     e( 44 - 44) =     14.97975  eV     1   --> A''            
     e( 45 - 45) =     15.22018  eV     1   --> A'             
     e( 46 - 46) =     15.57662  eV     1   --> A'             

 **************************************************************************

 **************************************************************************

                    xk=(   0.17045,   0.09841,   0.00000  )

     Band symmetry, C_s (m)     point group:

     e(  1 -  1) =    -59.18892  eV     1   --> A'             
     e(  2 -  2) =    -35.27930  eV     1   --> A'             
     e(  3 -  3) =    -35.26064  eV     1   --> A''            
     e(  4 -  4) =    -35.17670  eV     1   --> A'             
     e(  5 -  5) =    -35.16878  eV     1   --> A''            
     e(  6 -  6) =    -35.15232  eV     1   --> A'             
     e(  7 -  7) =    -34.69406  eV     1   --> A'             
     e(  8 -  8) =    -34.67871  eV     1   --> A''            
     e(  9 -  9) =    -34.50226  eV     1   --> A'             
     e( 10 - 10) =    -34.49803  eV     1   --> A''            
     e( 11 - 11) =    -34.47152  eV     1   --> A'             
     e( 12 - 12) =    -33.44456  eV     1   --> A'             
     e( 13 - 13) =    -33.12117  eV     1   --> A'             
     e( 14 - 14) =    -33.06251  eV     1   --> A''            
     e( 15 - 15) =    -14.15649  eV     1   --> A'             
     e( 16 - 16) =    -12.96754  eV     1   --> A'             
     e( 17 - 17) =     -3.28280  eV     1   --> A'             
     e( 18 - 18) =     -0.88895  eV     1   --> A'             
     e( 19 - 19) =     -0.61963  eV     1   --> A'             
     e( 20 - 20) =      0.38064  eV     1   --> A'             
     e( 21 - 21) =      0.82793  eV     1   --> A''            
     e( 22 - 22) =      0.96729  eV     1   --> A'             
     e( 23 - 23) =      2.01154  eV     1   --> A''            
     e( 24 - 24) =      2.53249  eV     1   --> A'             
     e( 25 - 25) =      2.65424  eV     1   --> A'             
     e( 26 - 26) =      3.99134  eV     1   --> A'             
     e( 27 - 27) =      5.12871  eV     1   --> A''            
     e( 28 - 28) =      5.52429  eV     1   --> A''            
     e( 29 - 29) =      6.18501  eV     1   --> A'             
     e( 30 - 30) =      6.56539  eV     1   --> A'             
     e( 31 - 31) =      7.58245  eV     1   --> A'             
     e( 32 - 32) =      7.84972  eV     1   --> A'             
     e( 33 - 33) =      9.29781  eV     1   --> A'             
     e( 34 - 34) =      9.50107  eV     1   --> A'             
     e( 35 - 35) =     10.10417  eV     1   --> A'             
     e( 36 - 36) =     10.39592  eV     1   --> A'             
     e( 37 - 37) =     11.44302  eV     1   --> A'             
     e( 38 - 38) =     12.38997  eV     1   --> A'             
     e( 39 - 39) =     12.73545  eV     1   --> A'             
     e( 40 - 40) =     13.05818  eV     1   --> A'             
     e( 41 - 41) =     13.91114  eV     1   --> A'             
     e( 42 - 42) =     14.03169  eV     1   --> A''            
     e( 43 - 43) =     14.81381  eV     1   --> A'             
     e( 44 - 44) =     15.12187  eV     1   --> A'             
     e( 45 - 45) =     15.17754  eV     1   --> A''            
     e( 46 - 46) =     15.56295  eV     1   --> A''            

 **************************************************************************

 **************************************************************************

                    xk=(   0.18182,   0.10497,   0.00000  )

     Band symmetry, C_s (m)     point group:

     e(  1 -  1) =    -59.18800  eV     1   --> A'             
     e(  2 -  2) =    -35.27970  eV     1   --> A'             
     e(  3 -  3) =    -35.25871  eV     1   --> A''            
     e(  4 -  4) =    -35.17800  eV     1   --> A'             
     e(  5 -  5) =    -35.16914  eV     1   --> A''            
     e(  6 -  6) =    -35.15135  eV     1   --> A'             
     e(  7 -  7) =    -34.69418  eV     1   --> A'             
     e(  8 -  8) =    -34.67692  eV     1   --> A''            
     e(  9 -  9) =    -34.50295  eV     1   --> A'             
     e( 10 - 10) =    -34.49821  eV     1   --> A''            
     e( 11 - 11) =    -34.47043  eV     1   --> A'             
     e( 12 - 12) =    -33.44183  eV     1   --> A'             
     e( 13 - 13) =    -33.13037  eV     1   --> A'             
     e( 14 - 14) =    -33.06458  eV     1   --> A''            
     e( 15 - 15) =    -14.09590  eV     1   --> A'             
     e( 16 - 16) =    -12.90421  eV     1   --> A'             
     e( 17 - 17) =     -3.21566  eV     1   --> A'             
     e( 18 - 18) =     -0.85827  eV     1   --> A'             
     e( 19 - 19) =     -0.74462  eV     1   --> A'             
     e( 20 - 20) =      0.39930  eV     1   --> A'             
     e( 21 - 21) =      0.81672  eV     1   --> A''            
     e( 22 - 22) =      0.93167  eV     1   --> A'             
     e( 23 - 23) =      2.04098  eV     1   --> A''            
     e( 24 - 24) =      2.31191  eV     1   --> A'             
     e( 25 - 25) =      2.54026  eV     1   --> A'             
     e( 26 - 26) =      3.95715  eV     1   --> A'             
     e( 27 - 27) =      5.02992  eV     1   --> A''            
     e( 28 - 28) =      5.47396  eV     1   --> A''            
     e( 29 - 29) =      6.25326  eV     1   --> A'             
     e( 30 - 30) =      6.64244  eV     1   --> A'             
     e( 31 - 31) =      7.66019  eV     1   --> A'             
     e( 32 - 32) =      7.91102  eV     1   --> A'             
     e( 33 - 33) =      9.32411  eV     1   --> A'             
     e( 34 - 34) =      9.46222  eV     1   --> A'             
     e( 35 - 35) =     10.10310  eV     1   --> A'             
     e( 36 - 36) =     10.27481  eV     1   --> A'             
     e( 37 - 37) =     11.31408  eV     1   --> A'             
     e( 38 - 38) =     12.40513  eV     1   --> A'             
     e( 39 - 39) =     12.77443  eV     1   --> A'             
     e( 40 - 40) =     13.11650  eV     1   --> A'             
     e( 41 - 41) =     13.81261  eV     1   --> A'             
     e( 42 - 42) =     14.21595  eV     1   --> A''            
     e( 43 - 43) =     14.80444  eV     1   --> A'             
     e( 44 - 44) =     15.20400  eV     1   --> A'             
     e( 45 - 45) =     15.30292  eV     1   --> A''            
     e( 46 - 46) =     15.52952  eV     1   --> A''            

 **************************************************************************

 **************************************************************************

                    xk=(   0.19318,   0.11153,   0.00000  )

     Band symmetry, C_s (m)     point group:

     e(  1 -  1) =    -59.18705  eV     1   --> A'             
     e(  2 -  2) =    -35.28012  eV     1   --> A'             
     e(  3 -  3) =    -35.25671  eV     1   --> A''            
     e(  4 -  4) =    -35.17933  eV     1   --> A'             
     e(  5 -  5) =    -35.16951  eV     1   --> A''            
     e(  6 -  6) =    -35.15034  eV     1   --> A'             
     e(  7 -  7) =    -34.69432  eV     1   --> A'             
     e(  8 -  8) =    -34.67508  eV     1   --> A''            
     e(  9 -  9) =    -34.50367  eV     1   --> A'             
     e( 10 - 10) =    -34.49839  eV     1   --> A''            
     e( 11 - 11) =    -34.46930  eV     1   --> A'             
     e( 12 - 12) =    -33.43900  eV     1   --> A'             
     e( 13 - 13) =    -33.13985  eV     1   --> A'             
     e( 14 - 14) =    -33.06672  eV     1   --> A''            
     e( 15 - 15) =    -14.03205  eV     1   --> A'             
     e( 16 - 16) =    -12.83744  eV     1   --> A'             
     e( 17 - 17) =     -3.14683  eV     1   --> A'             
     e( 18 - 18) =     -0.97713  eV     1   --> A'             
     e( 19 - 19) =     -0.72421  eV     1   --> A'             
     e( 20 - 20) =      0.41567  eV     1   --> A'             
     e( 21 - 21) =      0.80050  eV     1   --> A''            
     e( 22 - 22) =      0.89999  eV     1   --> A'             
     e( 23 - 23) =      2.00876  eV     1   --> A'             
     e( 24 - 24) =      2.07777  eV     1   --> A''            
     e( 25 - 25) =      2.49741  eV     1   --> A'             
     e( 26 - 26) =      3.95138  eV     1   --> A'             
     e( 27 - 27) =      4.93081  eV     1   --> A''            
     e( 28 - 28) =      5.42368  eV     1   --> A''            
     e( 29 - 29) =      6.32560  eV     1   --> A'             
     e( 30 - 30) =      6.72388  eV     1   --> A'             
     e( 31 - 31) =      7.74194  eV     1   --> A'             
     e( 32 - 32) =      7.97485  eV     1   --> A'             
     e( 33 - 33) =      9.28325  eV     1   --> A'             
     e( 34 - 34) =      9.48070  eV     1   --> A'             
     e( 35 - 35) =     10.05214  eV     1   --> A'             
     e( 36 - 36) =     10.22436  eV     1   --> A'             
     e( 37 - 37) =     11.15489  eV     1   --> A'             
     e( 38 - 38) =     12.43566  eV     1   --> A'             
     e( 39 - 39) =     12.73864  eV     1   --> A'             
     e( 40 - 40) =     13.17292  eV     1   --> A'             
     e( 41 - 41) =     13.78692  eV     1   --> A'             
     e( 42 - 42) =     14.40507  eV     1   --> A''            
     e( 43 - 43) =     14.66554  eV     1   --> A'             
     e( 44 - 44) =     15.23764  eV     1   --> A''            
     e( 45 - 45) =     15.37081  eV     1   --> A'             
     e( 46 - 46) =     15.57191  eV     1   --> A'             

 **************************************************************************

 **************************************************************************

                    xk=(   0.20455,   0.11809,   0.00000  )

     Band symmetry, C_s (m)     point group:

     e(  1 -  1) =    -59.18608  eV     1   --> A'             
     e(  2 -  2) =    -35.28056  eV     1   --> A'             
     e(  3 -  3) =    -35.25466  eV     1   --> A''            
     e(  4 -  4) =    -35.18070  eV     1   --> A'             
     e(  5 -  5) =    -35.16989  eV     1   --> A''            
     e(  6 -  6) =    -35.14930  eV     1   --> A'             
     e(  7 -  7) =    -34.69446  eV     1   --> A'             
     e(  8 -  8) =    -34.67318  eV     1   --> A''            
     e(  9 -  9) =    -34.50441  eV     1   --> A'             
     e( 10 - 10) =    -34.49858  eV     1   --> A''            
     e( 11 - 11) =    -34.46813  eV     1   --> A'             
     e( 12 - 12) =    -33.43609  eV     1   --> A'             
     e( 13 - 13) =    -33.14958  eV     1   --> A'             
     e( 14 - 14) =    -33.06892  eV     1   --> A''            
     e( 15 - 15) =    -13.96511  eV     1   --> A'             
     e( 16 - 16) =    -12.76736  eV     1   --> A'             
     e( 17 - 17) =     -3.07702  eV     1   --> A'             
     e( 18 - 18) =     -1.14635  eV     1   --> A'             
     e( 19 - 19) =     -0.65709  eV     1   --> A'             
     e( 20 - 20) =      0.42873  eV     1   --> A'             
     e( 21 - 21) =      0.77952  eV     1   --> A''            
     e( 22 - 22) =      0.87346  eV     1   --> A'             
     e( 23 - 23) =      1.70361  eV     1   --> A'             
     e( 24 - 24) =      2.12175  eV     1   --> A''            
     e( 25 - 25) =      2.45077  eV     1   --> A'             
     e( 26 - 26) =      3.96994  eV     1   --> A'             
     e( 27 - 27) =      4.83196  eV     1   --> A''            
     e( 28 - 28) =      5.37362  eV     1   --> A''            
     e( 29 - 29) =      6.40190  eV     1   --> A'             
     e( 30 - 30) =      6.80956  eV     1   --> A'             
     e( 31 - 31) =      7.82728  eV     1   --> A'             
     e( 32 - 32) =      8.04073  eV     1   --> A'             
     e( 33 - 33) =      9.20860  eV     1   --> A'             
     e( 34 - 34) =      9.52447  eV     1   --> A'             
     e( 35 - 35) =      9.94375  eV     1   --> A'             
     e( 36 - 36) =     10.24731  eV     1   --> A'             
     e( 37 - 37) =     10.98276  eV     1   --> A'             
     e( 38 - 38) =     12.44723  eV     1   --> A'             
     e( 39 - 39) =     12.66826  eV     1   --> A'             
     e( 40 - 40) =     13.20869  eV     1   --> A'             
     e( 41 - 41) =     13.81474  eV     1   --> A'             
     e( 42 - 42) =     14.53937  eV     1   --> A'             
     e( 43 - 43) =     14.59553  eV     1   --> A''            
     e( 44 - 44) =     15.12546  eV     1   --> A''            
     e( 45 - 45) =     15.39388  eV     1   --> A'             
     e( 46 - 46) =     15.71076  eV     1   --> A'             

 **************************************************************************

 **************************************************************************

                    xk=(   0.21591,   0.12466,   0.00000  )

     Band symmetry, C_s (m)     point group:

     e(  1 -  1) =    -59.18508  eV     1   --> A'             
     e(  2 -  2) =    -35.28102  eV     1   --> A'             
     e(  3 -  3) =    -35.25256  eV     1   --> A''            
     e(  4 -  4) =    -35.18208  eV     1   --> A'             
     e(  5 -  5) =    -35.17028  eV     1   --> A''            
     e(  6 -  6) =    -35.14823  eV     1   --> A'             
     e(  7 -  7) =    -34.69461  eV     1   --> A'             
     e(  8 -  8) =    -34.67124  eV     1   --> A''            
     e(  9 -  9) =    -34.50516  eV     1   --> A'             
     e( 10 - 10) =    -34.49877  eV     1   --> A''            
     e( 11 - 11) =    -34.46693  eV     1   --> A'             
     e( 12 - 12) =    -33.43313  eV     1   --> A'             
     e( 13 - 13) =    -33.15949  eV     1   --> A'             
     e( 14 - 14) =    -33.07116  eV     1   --> A''            
     e( 15 - 15) =    -13.89524  eV     1   --> A'             
     e( 16 - 16) =    -12.69413  eV     1   --> A'             
     e( 17 - 17) =     -3.00713  eV     1   --> A'             
     e( 18 - 18) =     -1.32505  eV     1   --> A'             
     e( 19 - 19) =     -0.58349  eV     1   --> A'             
     e( 20 - 20) =      0.43757  eV     1   --> A'             
     e( 21 - 21) =      0.75422  eV     1   --> A''            
     e( 22 - 22) =      0.85341  eV     1   --> A'             
     e( 23 - 23) =      1.40045  eV     1   --> A'             
     e( 24 - 24) =      2.17258  eV     1   --> A''            
     e( 25 - 25) =      2.40224  eV     1   --> A'             
     e( 26 - 26) =      4.00816  eV     1   --> A'             
     e( 27 - 27) =      4.73391  eV     1   --> A''            
     e( 28 - 28) =      5.32395  eV     1   --> A''            
     e( 29 - 29) =      6.48206  eV     1   --> A'             
     e( 30 - 30) =      6.89934  eV     1   --> A'             
     e( 31 - 31) =      7.91548  eV     1   --> A'             
     e( 32 - 32) =      8.10807  eV     1   --> A'             
     e( 33 - 33) =      9.12853  eV     1   --> A'             
     e( 34 - 34) =      9.56141  eV     1   --> A'             
     e( 35 - 35) =      9.82651  eV     1   --> A'             
     e( 36 - 36) =     10.29239  eV     1   --> A'             
     e( 37 - 37) =     10.81411  eV     1   --> A'             
     e( 38 - 38) =     12.35721  eV     1   --> A'             
     e( 39 - 39) =     12.66278  eV     1   --> A'             
     e( 40 - 40) =     13.23209  eV     1   --> A'             
     e( 41 - 41) =     13.81697  eV     1   --> A'             
     e( 42 - 42) =     14.49061  eV     1   --> A'             
     e( 43 - 43) =     14.77066  eV     1   --> A''            
     e( 44 - 44) =     15.02487  eV     1   --> A''            
     e( 45 - 45) =     15.34009  eV     1   --> A'             
     e( 46 - 46) =     15.88848  eV     1   --> A'             

 **************************************************************************

 **************************************************************************

                    xk=(   0.22727,   0.13122,   0.00000  )

     Band symmetry, C_s (m)     point group:

     e(  1 -  1) =    -59.18406  eV     1   --> A'             
     e(  2 -  2) =    -35.28150  eV     1   --> A'             
     e(  3 -  3) =    -35.25044  eV     1   --> A''            
     e(  4 -  4) =    -35.18349  eV     1   --> A'             
     e(  5 -  5) =    -35.17067  eV     1   --> A''            
     e(  6 -  6) =    -35.14714  eV     1   --> A'             
     e(  7 -  7) =    -34.69477  eV     1   --> A'             
     e(  8 -  8) =    -34.66927  eV     1   --> A''            
     e(  9 -  9) =    -34.50593  eV     1   --> A'             
     e( 10 - 10) =    -34.49896  eV     1   --> A''            
     e( 11 - 11) =    -34.46571  eV     1   --> A'             
     e( 12 - 12) =    -33.43013  eV     1   --> A'             
     e( 13 - 13) =    -33.16954  eV     1   --> A'             
     e( 14 - 14) =    -33.07344  eV     1   --> A''            
     e( 15 - 15) =    -13.82261  eV     1   --> A'             
     e( 16 - 16) =    -12.61794  eV     1   --> A'             
     e( 17 - 17) =     -2.93839  eV     1   --> A'             
     e( 18 - 18) =     -1.50837  eV     1   --> A'             
     e( 19 - 19) =     -0.50748  eV     1   --> A'             
     e( 20 - 20) =      0.44161  eV     1   --> A'             
     e( 21 - 21) =      0.72517  eV     1   --> A''            
     e( 22 - 22) =      0.84104  eV     1   --> A'             
     e( 23 - 23) =      1.10063  eV     1   --> A'             
     e( 24 - 24) =      2.22975  eV     1   --> A''            
     e( 25 - 25) =      2.35567  eV     1   --> A'             
     e( 26 - 26) =      4.06176  eV     1   --> A'             
     e( 27 - 27) =      4.63712  eV     1   --> A''            
     e( 28 - 28) =      5.27481  eV     1   --> A''            
     e( 29 - 29) =      6.56591  eV     1   --> A'             
     e( 30 - 30) =      6.99300  eV     1   --> A'             
     e( 31 - 31) =      8.00524  eV     1   --> A'             
     e( 32 - 32) =      8.17624  eV     1   --> A'             
     e( 33 - 33) =      9.05118  eV     1   --> A'             
     e( 34 - 34) =      9.57254  eV     1   --> A'             
     e( 35 - 35) =      9.71483  eV     1   --> A'             
     e( 36 - 36) =     10.34515  eV     1   --> A'             
     e( 37 - 37) =     10.66662  eV     1   --> A'             
     e( 38 - 38) =     12.18446  eV     1   --> A'             
     e( 39 - 39) =     12.72137  eV     1   --> A'             
     e( 40 - 40) =     13.24283  eV     1   --> A'             
     e( 41 - 41) =     13.74641  eV     1   --> A'             
     e( 42 - 42) =     14.54554  eV     1   --> A'             
     e( 43 - 43) =     14.80791  eV     1   --> A''            
     e( 44 - 44) =     15.06190  eV     1   --> A''            
     e( 45 - 45) =     15.27493  eV     1   --> A'             
     e( 46 - 46) =     16.02426  eV     1   --> A'             

 **************************************************************************

 **************************************************************************

                    xk=(   0.23864,   0.13778,   0.00000  )

     Band symmetry, C_s (m)     point group:

     e(  1 -  1) =    -59.18304  eV     1   --> A'             
     e(  2 -  2) =    -35.28200  eV     1   --> A'             
     e(  3 -  3) =    -35.24829  eV     1   --> A''            
     e(  4 -  4) =    -35.18490  eV     1   --> A'             
     e(  5 -  5) =    -35.17107  eV     1   --> A''            
     e(  6 -  6) =    -35.14603  eV     1   --> A'             
     e(  7 -  7) =    -34.69494  eV     1   --> A'             
     e(  8 -  8) =    -34.66728  eV     1   --> A''            
     e(  9 -  9) =    -34.50670  eV     1   --> A'             
     e( 10 - 10) =    -34.49916  eV     1   --> A''            
     e( 11 - 11) =    -34.46447  eV     1   --> A'             
     e( 12 - 12) =    -33.42710  eV     1   --> A'             
     e( 13 - 13) =    -33.17968  eV     1   --> A'             
     e( 14 - 14) =    -33.07574  eV     1   --> A''            
     e( 15 - 15) =    -13.74743  eV     1   --> A'             
     e( 16 - 16) =    -12.53900  eV     1   --> A'             
     e( 17 - 17) =     -2.87271  eV     1   --> A'             
     e( 18 - 18) =     -1.69324  eV     1   --> A'             
     e( 19 - 19) =     -0.43084  eV     1   --> A'             
     e( 20 - 20) =      0.44092  eV     1   --> A'             
     e( 21 - 21) =      0.69298  eV     1   --> A''            
     e( 22 - 22) =      0.80468  eV     1   --> A'             
     e( 23 - 23) =      0.83768  eV     1   --> A'             
     e( 24 - 24) =      2.29268  eV     1   --> A''            
     e( 25 - 25) =      2.31416  eV     1   --> A'             
     e( 26 - 26) =      4.12722  eV     1   --> A'             
     e( 27 - 27) =      4.54201  eV     1   --> A''            
     e( 28 - 28) =      5.22633  eV     1   --> A''            
     e( 29 - 29) =      6.65328  eV     1   --> A'             
     e( 30 - 30) =      7.09030  eV     1   --> A'             
     e( 31 - 31) =      8.09387  eV     1   --> A'             
     e( 32 - 32) =      8.24499  eV     1   --> A'             
     e( 33 - 33) =      8.98041  eV     1   --> A'             
     e( 34 - 34) =      9.53479  eV     1   --> A'             
     e( 35 - 35) =      9.61837  eV     1   --> A'             
     e( 36 - 36) =     10.40067  eV     1   --> A'             
     e( 37 - 37) =     10.55956  eV     1   --> A'             
     e( 38 - 38) =     11.98626  eV     1   --> A'             
     e( 39 - 39) =     12.79830  eV     1   --> A'             
     e( 40 - 40) =     13.22092  eV     1   --> A'             
     e( 41 - 41) =     13.65185  eV     1   --> A'             
     e( 42 - 42) =     14.65305  eV     1   --> A'             
     e( 43 - 43) =     14.70476  eV     1   --> A''            
     e( 44 - 44) =     15.21986  eV     1   --> A'             
     e( 45 - 45) =     15.23687  eV     1   --> A''            
     e( 46 - 46) =     16.07555  eV     1   --> A'             

 **************************************************************************

 **************************************************************************

                    xk=(   0.25000,   0.14434,   0.00000  )

     Band symmetry, C_s (m)     point group:

     e(  1 -  1) =    -59.18201  eV     1   --> A'             
     e(  2 -  2) =    -35.28250  eV     1   --> A'             
     e(  3 -  3) =    -35.24613  eV     1   --> A''            
     e(  4 -  4) =    -35.18631  eV     1   --> A'             
     e(  5 -  5) =    -35.17147  eV     1   --> A''            
     e(  6 -  6) =    -35.14492  eV     1   --> A'             
     e(  7 -  7) =    -34.69511  eV     1   --> A'             
     e(  8 -  8) =    -34.66527  eV     1   --> A''            
     e(  9 -  9) =    -34.50747  eV     1   --> A'             
     e( 10 - 10) =    -34.49936  eV     1   --> A''            
     e( 11 - 11) =    -34.46322  eV     1   --> A'             
     e( 12 - 12) =    -33.42405  eV     1   --> A'             
     e( 13 - 13) =    -33.18985  eV     1   --> A'             
     e( 14 - 14) =    -33.07805  eV     1   --> A''            
     e( 15 - 15) =    -13.66994  eV     1   --> A'             
     e( 16 - 16) =    -12.45752  eV     1   --> A'             
     e( 17 - 17) =     -2.81341  eV     1   --> A'             
     e( 18 - 18) =     -1.87561  eV     1   --> A'             
     e( 19 - 19) =     -0.35539  eV     1   --> A'             
     e( 20 - 20) =      0.43386  eV     1   --> A'             
     e( 21 - 21) =      0.51772  eV     1   --> A'             
     e( 22 - 22) =      0.65828  eV     1   --> A''            
     e( 23 - 23) =      0.84231  eV     1   --> A'             
     e( 24 - 24) =      2.27984  eV     1   --> A'             
     e( 25 - 25) =      2.36074  eV     1   --> A''            
     e( 26 - 26) =      4.20185  eV     1   --> A'             
     e( 27 - 27) =      4.44895  eV     1   --> A''            
     e( 28 - 28) =      5.17863  eV     1   --> A''            
     e( 29 - 29) =      6.74393  eV     1   --> A'             
     e( 30 - 30) =      7.19089  eV     1   --> A'             
     e( 31 - 31) =      8.17568  eV     1   --> A'             
     e( 32 - 32) =      8.31572  eV     1   --> A'             
     e( 33 - 33) =      8.91853  eV     1   --> A'             
     e( 34 - 34) =      9.44761  eV     1   --> A'             
     e( 35 - 35) =      9.52943  eV     1   --> A'             
     e( 36 - 36) =     10.45305  eV     1   --> A'             
     e( 37 - 37) =     10.50805  eV     1   --> A'             
     e( 38 - 38) =     11.78437  eV     1   --> A'             
     e( 39 - 39) =     12.87373  eV     1   --> A'             
     e( 40 - 40) =     13.14152  eV     1   --> A'             
     e( 41 - 41) =     13.60104  eV     1   --> A'             
     e( 42 - 42) =     14.58215  eV     1   --> A''            
     e( 43 - 43) =     14.74454  eV     1   --> A'             
     e( 44 - 44) =     15.19989  eV     1   --> A'             
     e( 45 - 45) =     15.42181  eV     1   --> A''            
     e( 46 - 46) =     16.01751  eV     1   --> A'             

 **************************************************************************

 **************************************************************************

                    xk=(   0.26136,   0.15090,   0.00000  )

     Band symmetry, C_s (m)     point group:

     e(  1 -  1) =    -59.18098  eV     1   --> A'             
     e(  2 -  2) =    -35.28302  eV     1   --> A'             
     e(  3 -  3) =    -35.24396  eV     1   --> A''            
     e(  4 -  4) =    -35.18772  eV     1   --> A'             
     e(  5 -  5) =    -35.17186  eV     1   --> A''            
     e(  6 -  6) =    -35.14380  eV     1   --> A'             
     e(  7 -  7) =    -34.69529  eV     1   --> A'             
     e(  8 -  8) =    -34.66327  eV     1   --> A''            
     e(  9 -  9) =    -34.50825  eV     1   --> A'             
     e( 10 - 10) =    -34.49956  eV     1   --> A''            
     e( 11 - 11) =    -34.46196  eV     1   --> A'             
     e( 12 - 12) =    -33.42100  eV     1   --> A'             
     e( 13 - 13) =    -33.20000  eV     1   --> A'             
     e( 14 - 14) =    -33.08036  eV     1   --> A''            
     e( 15 - 15) =    -13.59036  eV     1   --> A'             
     e( 16 - 16) =    -12.37376  eV     1   --> A'             
     e( 17 - 17) =     -2.76731  eV     1   --> A'             
     e( 18 - 18) =     -2.04803  eV     1   --> A'             
     e( 19 - 19) =     -0.28355  eV     1   --> A'             
     e( 20 - 20) =      0.22552  eV     1   --> A'             
     e( 21 - 21) =      0.43695  eV     1   --> A'             
     e( 22 - 22) =      0.62169  eV     1   --> A''            
     e( 23 - 23) =      0.85588  eV     1   --> A'             
     e( 24 - 24) =      2.25390  eV     1   --> A'             
     e( 25 - 25) =      2.43330  eV     1   --> A''            
     e( 26 - 26) =      4.28361  eV     1   --> A'             
     e( 27 - 27) =      4.35827  eV     1   --> A''            
     e( 28 - 28) =      5.13181  eV     1   --> A''            
     e( 29 - 29) =      6.83754  eV     1   --> A'             
     e( 30 - 30) =      7.29430  eV     1   --> A'             
     e( 31 - 31) =      8.24085  eV     1   --> A'             
     e( 32 - 32) =      8.39230  eV     1   --> A'             
     e( 33 - 33) =      8.86531  eV     1   --> A'             
     e( 34 - 34) =      9.34217  eV     1   --> A'             
     e( 35 - 35) =      9.42763  eV     1   --> A'             
     e( 36 - 36) =     10.47395  eV     1   --> A'             
[...]

     Band symmetry, C_s (m)     point group:

     e(  1 -  1) =    -59.16754  eV     1   --> A'             
     e(  2 -  2) =    -35.29040  eV     1   --> A'             
     e(  3 -  3) =    -35.21603  eV     1   --> A''            
     e(  4 -  4) =    -35.20553  eV     1   --> A'             
     e(  5 -  5) =    -35.17674  eV     1   --> A''            
     e(  6 -  6) =    -35.12902  eV     1   --> A'             
     e(  7 -  7) =    -34.69814  eV     1   --> A'             
     e(  8 -  8) =    -34.63713  eV     1   --> A''            
     e(  9 -  9) =    -34.51832  eV     1   --> A'             
     e( 10 - 10) =    -34.50213  eV     1   --> A''            
     e( 11 - 11) =    -34.44515  eV     1   --> A'             
     e( 12 - 12) =    -33.38107  eV     1   --> A'             
     e( 13 - 13) =    -33.33102  eV     1   --> A'             
     e( 14 - 14) =    -33.11031  eV     1   --> A''            
     e( 15 - 15) =    -12.26501  eV     1   --> A'             
     e( 16 - 16) =    -10.96092  eV     1   --> A'             
     e( 17 - 17) =     -5.02963  eV     1   --> A'             
     e( 18 - 18) =     -3.33946  eV     1   --> A'             
     e( 19 - 19) =     -1.86955  eV     1   --> A'             
     e( 20 - 20) =     -0.28201  eV     1   --> A'             
     e( 21 - 21) =      0.07984  eV     1   --> A''            
     e( 22 - 22) =      1.46198  eV     1   --> A'             
     e( 23 - 23) =      2.04804  eV     1   --> A'             
     e( 24 - 24) =      2.61569  eV     1   --> A'             
     e( 25 - 25) =      3.34230  eV     1   --> A''            
     e( 26 - 26) =      3.85875  eV     1   --> A''            
     e( 27 - 27) =      4.44683  eV     1   --> A''            
     e( 28 - 28) =      5.56439  eV     1   --> A'             
     e( 29 - 29) =      6.86765  eV     1   --> A'             
     e( 30 - 30) =      7.12002  eV     1   --> A'             
     e( 31 - 31) =      7.76635  eV     1   --> A'             
     e( 32 - 32) =      8.28825  eV     1   --> A'             
     e( 33 - 33) =      8.81424  eV     1   --> A'             
     e( 34 - 34) =      9.83206  eV     1   --> A'             
     e( 35 - 35) =     10.42286  eV     1   --> A'             
     e( 36 - 36) =     10.80506  eV     1   --> A'             
     e( 37 - 37) =     11.11417  eV     1   --> A'             
     e( 38 - 38) =     11.57138  eV     1   --> A'             
     e( 39 - 39) =     11.78782  eV     1   --> A'             
     e( 40 - 40) =     12.23128  eV     1   --> A'             
     e( 41 - 41) =     12.34340  eV     1   --> A'             
     e( 42 - 42) =     12.59595  eV     1   --> A''            
     e( 43 - 43) =     12.94349  eV     1   --> A'             
     e( 44 - 44) =     13.51207  eV     1   --> A'             
     e( 45 - 45) =     14.16233  eV     1   --> A'             
     e( 46 - 46) =     14.39173  eV     1   --> A'             

 **************************************************************************

 **************************************************************************

                    xk=(  -0.33333,  -0.57735,  -0.07004  )

     point group C_3 (3)    
     there are  3 classes
     the character table:

       E     C3    C3^2 
A      1.00  1.00  1.00
E      1.00 -0.50 -0.50
E*     1.00 -0.50 -0.50
     imaginary part
A      0.00  0.00  0.00
E      0.00  0.87 -0.87
E*     0.00 -0.87  0.87

     the symmetry operations in each class and the name of the first element:

     E        1
                                                                 
     C3       2
                                                                 
     C3^2     3
                                                                 

     Band symmetry, C_3 (3)     point group:

     e(  1 -  1) =    -59.16392  eV     1   --> E*             
     e(  2 -  2) =    -35.25831  eV     1   --> E*             
     e(  3 -  3) =    -35.24059  eV     1   --> A              
     e(  4 -  4) =    -35.19407  eV     1   --> A              
     e(  5 -  5) =    -35.19293  eV     1   --> E*             
     e(  6 -  6) =    -35.12914  eV     1   --> E              
     e(  7 -  8) =    -34.66312  eV     2   --> A              
     e(  7 -  8) =    -34.66312  eV     2   --> E*             
     e(  9 - 10) =    -34.51193  eV     2   --> A              
     e(  9 - 10) =    -34.51193  eV     2   --> E*             
     e( 11 - 11) =    -34.44360  eV     1   --> E              
     e( 12 - 12) =    -33.36676  eV     1   --> E*             
     e( 13 - 13) =    -33.25848  eV     1   --> E              
     e( 14 - 14) =    -33.23125  eV     1   --> A              
     e( 15 - 15) =    -11.88327  eV     1   --> E              
     e( 16 - 16) =    -10.55266  eV     1   --> E              
     e( 17 - 17) =     -3.76092  eV     1   --> A              
     e( 18 - 18) =     -3.41782  eV     1   --> E*             
     e( 19 - 19) =     -1.69515  eV     1   --> A              
     e( 20 - 20) =     -1.69282  eV     1   --> E*             
     e( 21 - 21) =     -1.32332  eV     1   --> E              
     e( 22 - 22) =      0.92559  eV     1   --> A              
     e( 23 - 23) =      0.96694  eV     1   --> E              
     e( 24 - 24) =      2.05362  eV     1   --> E              
     e( 25 - 25) =      2.19106  eV     1   --> A              
     e( 26 - 26) =      2.80919  eV     1   --> E*             
     e( 27 - 27) =      5.28461  eV     1   --> E              
     e( 28 - 28) =      6.61268  eV     1   --> E*             
     e( 29 - 29) =      7.18248  eV     1   --> A              
     e( 30 - 30) =      7.95258  eV     1   --> E*             
     e( 31 - 31) =      8.38030  eV     1   --> A              
     e( 32 - 32) =      9.41672  eV     1   --> E              
     e( 33 - 33) =      9.47348  eV     1   --> E*             
     e( 34 - 34) =     10.65153  eV     1   --> A              
     e( 35 - 35) =     11.27177  eV     1   --> E              
     e( 36 - 36) =     11.83026  eV     1   --> A              
     e( 37 - 37) =     12.15657  eV     1   --> E*             
     e( 38 - 38) =     12.19527  eV     1   --> E              
     e( 39 - 39) =     12.81323  eV     1   --> E*             
     e( 40 - 40) =     12.90893  eV     1   --> E              
     e( 41 - 41) =     13.02232  eV     1   --> A              
     e( 42 - 42) =     13.08456  eV     1   --> A              
     e( 43 - 43) =     13.25178  eV     1   --> E*             
     e( 44 - 44) =     13.97415  eV     1   --> E              
     e( 45 - 45) =     14.02103  eV     1   --> E              
     e( 46 - 46) =     14.42317  eV     1   --> A              

 **************************************************************************

 **************************************************************************

                    xk=(  -0.33333,  -0.57735,  -0.05253  )

     Band symmetry, C_3 (3)     point group:

     e(  1 -  1) =    -59.16392  eV     1   --> E*             
     e(  2 -  2) =    -35.25831  eV     1   --> E*             
     e(  3 -  3) =    -35.24059  eV     1   --> A              
     e(  4 -  4) =    -35.19407  eV     1   --> A              
     e(  5 -  5) =    -35.19293  eV     1   --> E*             
     e(  6 -  6) =    -35.12914  eV     1   --> E              
     e(  7 -  8) =    -34.66312  eV     2   --> A              
     e(  7 -  8) =    -34.66312  eV     2   --> E*             
     e(  9 - 10) =    -34.51193  eV     2   --> A              
     e(  9 - 10) =    -34.51193  eV     2   --> E*             
     e( 11 - 11) =    -34.44359  eV     1   --> E              
     e( 12 - 12) =    -33.36676  eV     1   --> E*             
     e( 13 - 13) =    -33.25848  eV     1   --> E              
     e( 14 - 14) =    -33.23125  eV     1   --> A              
     e( 15 - 15) =    -11.88326  eV     1   --> E              
     e( 16 - 16) =    -10.55265  eV     1   --> E              
     e( 17 - 17) =     -3.76092  eV     1   --> A              
     e( 18 - 18) =     -3.41781  eV     1   --> E*             
     e( 19 - 19) =     -1.69515  eV     1   --> A              
     e( 20 - 20) =     -1.69282  eV     1   --> E*             
     e( 21 - 21) =     -1.32332  eV     1   --> E              
     e( 22 - 22) =      0.92559  eV     1   --> A              
     e( 23 - 23) =      0.96694  eV     1   --> E              
     e( 24 - 24) =      2.05362  eV     1   --> E              
     e( 25 - 25) =      2.19106  eV     1   --> A              
     e( 26 - 26) =      2.80919  eV     1   --> E*             
     e( 27 - 27) =      5.28461  eV     1   --> E              
     e( 28 - 28) =      6.61268  eV     1   --> E*             
     e( 29 - 29) =      7.18248  eV     1   --> A              
     e( 30 - 30) =      7.95258  eV     1   --> E*             
     e( 31 - 31) =      8.38031  eV     1   --> A              
     e( 32 - 32) =      9.41671  eV     1   --> E              
     e( 33 - 33) =      9.47347  eV     1   --> E*             
     e( 34 - 34) =     10.65147  eV     1   --> A              
     e( 35 - 35) =     11.27215  eV     1   --> E              
     e( 36 - 36) =     11.83170  eV     1   --> A              
     e( 37 - 37) =     12.16049  eV     1   --> E*             
     e( 38 - 38) =     12.18998  eV     1   --> E              
     e( 39 - 39) =     12.78445  eV     1   --> E*             
     e( 40 - 40) =     12.93220  eV     1   --> E              
     e( 41 - 41) =     12.94400  eV     1   --> A              
     e( 42 - 42) =     13.18413  eV     1   --> A              
     e( 43 - 43) =     13.30060  eV     1   --> E*             
     e( 44 - 44) =     13.79239  eV     1   --> E              
     e( 45 - 45) =     14.21638  eV     1   --> E              
     e( 46 - 46) =     14.28345  eV     1   --> A              

 **************************************************************************

 **************************************************************************

                    xk=(  -0.33333,  -0.57735,  -0.03502  )

     Band symmetry, C_3 (3)     point group:

     e(  1 -  1) =    -59.16392  eV     1   --> E*             
     e(  2 -  2) =    -35.25831  eV     1   --> E*             
     e(  3 -  3) =    -35.24059  eV     1   --> A              
     e(  4 -  4) =    -35.19407  eV     1   --> A              
     e(  5 -  5) =    -35.19293  eV     1   --> E*             
     e(  6 -  6) =    -35.12914  eV     1   --> E              
     e(  7 -  8) =    -34.66312  eV     2   --> A              
     e(  7 -  8) =    -34.66312  eV     2   --> E*             
     e(  9 - 10) =    -34.51193  eV     2   --> A              
     e(  9 - 10) =    -34.51193  eV     2   --> E*             
     e( 11 - 11) =    -34.44359  eV     1   --> E              
     e( 12 - 12) =    -33.36676  eV     1   --> E*             
     e( 13 - 13) =    -33.25848  eV     1   --> E              
     e( 14 - 14) =    -33.23124  eV     1   --> A              
     e( 15 - 15) =    -11.88325  eV     1   --> E              
     e( 16 - 16) =    -10.55264  eV     1   --> E              
     e( 17 - 17) =     -3.76092  eV     1   --> A              
     e( 18 - 18) =     -3.41781  eV     1   --> E*             
     e( 19 - 19) =     -1.69515  eV     1   --> A              
     e( 20 - 20) =     -1.69282  eV     1   --> E*             
     e( 21 - 21) =     -1.32332  eV     1   --> E              
     e( 22 - 22) =      0.92559  eV     1   --> A              
     e( 23 - 23) =      0.96694  eV     1   --> E              
     e( 24 - 24) =      2.05362  eV     1   --> E              
     e( 25 - 25) =      2.19106  eV     1   --> A              
     e( 26 - 26) =      2.80919  eV     1   --> E*             
     e( 27 - 27) =      5.28461  eV     1   --> E              
     e( 28 - 28) =      6.61268  eV     1   --> E*             
     e( 29 - 29) =      7.18248  eV     1   --> A              
     e( 30 - 30) =      7.95258  eV     1   --> E*             
     e( 31 - 31) =      8.38031  eV     1   --> A              
     e( 32 - 32) =      9.41671  eV     1   --> E              
     e( 33 - 33) =      9.47346  eV     1   --> E*             
     e( 34 - 34) =     10.65130  eV     1   --> A              
     e( 35 - 35) =     11.27309  eV     1   --> E              
     e( 36 - 36) =     11.83521  eV     1   --> A              
     e( 37 - 37) =     12.17051  eV     1   --> E*             
     e( 38 - 38) =     12.17777  eV     1   --> E              
     e( 39 - 39) =     12.72727  eV     1   --> E*             
     e( 40 - 40) =     12.86612  eV     1   --> A              
     e( 41 - 41) =     12.99721  eV     1   --> E              
     e( 42 - 42) =     13.32543  eV     1   --> A              
     e( 43 - 43) =     13.41784  eV     1   --> E*             
     e( 44 - 44) =     13.60581  eV     1   --> E              
     e( 45 - 45) =     14.08558  eV     1   --> A              
     e( 46 - 46) =     14.24743  eV     1   --> E*             

 **************************************************************************

 **************************************************************************

                    xk=(  -0.33333,  -0.57735,  -0.01751  )

     Band symmetry, C_3 (3)     point group:

     e(  1 -  1) =    -59.16392  eV     1   --> E*             
     e(  2 -  2) =    -35.25831  eV     1   --> E*             
     e(  3 -  3) =    -35.24059  eV     1   --> A              
     e(  4 -  4) =    -35.19407  eV     1   --> A              
     e(  5 -  5) =    -35.19293  eV     1   --> E*             
     e(  6 -  6) =    -35.12914  eV     1   --> E              
     e(  7 -  8) =    -34.66312  eV     2   --> A              
     e(  7 -  8) =    -34.66312  eV     2   --> E*             
     e(  9 - 10) =    -34.51193  eV     2   --> A              
     e(  9 - 10) =    -34.51193  eV     2   --> E*             
     e( 11 - 11) =    -34.44360  eV     1   --> E              
     e( 12 - 12) =    -33.36676  eV     1   --> E*             
     e( 13 - 13) =    -33.25848  eV     1   --> E              
     e( 14 - 14) =    -33.23125  eV     1   --> A              
     e( 15 - 15) =    -11.88326  eV     1   --> E              
     e( 16 - 16) =    -10.55266  eV     1   --> E              
     e( 17 - 17) =     -3.76092  eV     1   --> A              
     e( 18 - 18) =     -3.41781  eV     1   --> E*             
     e( 19 - 19) =     -1.69515  eV     1   --> A              
     e( 20 - 20) =     -1.69282  eV     1   --> E*             
     e( 21 - 21) =     -1.32332  eV     1   --> E              
     e( 22 - 22) =      0.92559  eV     1   --> A              
     e( 23 - 23) =      0.96694  eV     1   --> E              
     e( 24 - 24) =      2.05362  eV     1   --> E              
     e( 25 - 25) =      2.19106  eV     1   --> A              
     e( 26 - 26) =      2.80919  eV     1   --> E*             
     e( 27 - 27) =      5.28461  eV     1   --> E              
     e( 28 - 28) =      6.61268  eV     1   --> E*             
     e( 29 - 29) =      7.18248  eV     1   --> A              
     e( 30 - 30) =      7.95258  eV     1   --> E*             
     e( 31 - 31) =      8.38031  eV     1   --> A              
     e( 32 - 32) =      9.41671  eV     1   --> E              
     e( 33 - 33) =      9.47344  eV     1   --> E*             
     e( 34 - 34) =     10.65113  eV     1   --> A              
     e( 35 - 35) =     11.27403  eV     1   --> E              
     e( 36 - 36) =     11.83878  eV     1   --> A              
     e( 37 - 37) =     12.16627  eV     1   --> E              
     e( 38 - 38) =     12.18144  eV     1   --> E*             
     e( 39 - 39) =     12.67949  eV     1   --> E*             
     e( 40 - 40) =     12.81655  eV     1   --> A              
     e( 41 - 41) =     13.08957  eV     1   --> E              
     e( 42 - 42) =     13.44376  eV     1   --> E              
     e( 43 - 43) =     13.47622  eV     1   --> A              
     e( 44 - 44) =     13.56076  eV     1   --> E*             
     e( 45 - 45) =     13.89876  eV     1   --> A              
     e( 46 - 46) =     14.05182  eV     1   --> E*             

 **************************************************************************

 **************************************************************************

                    xk=(  -0.33333,  -0.57735,   0.00000  )

     Band symmetry, C_3 (3)     point group:

     e(  1 -  1) =    -59.16392  eV     1   --> E*             
     e(  2 -  2) =    -35.25831  eV     1   --> E*             
     e(  3 -  3) =    -35.24059  eV     1   --> A              
     e(  4 -  4) =    -35.19407  eV     1   --> A              
     e(  5 -  5) =    -35.19293  eV     1   --> E*             
     e(  6 -  6) =    -35.12914  eV     1   --> E              
     e(  7 -  8) =    -34.66312  eV     2   --> A              
     e(  7 -  8) =    -34.66312  eV     2   --> E*             
     e(  9 - 10) =    -34.51193  eV     2   --> A              
     e(  9 - 10) =    -34.51193  eV     2   --> E*             
     e( 11 - 11) =    -34.44359  eV     1   --> E              
     e( 12 - 12) =    -33.36676  eV     1   --> E*             
     e( 13 - 13) =    -33.25848  eV     1   --> E              
     e( 14 - 14) =    -33.23124  eV     1   --> A              
     e( 15 - 15) =    -11.88326  eV     1   --> E              
     e( 16 - 16) =    -10.55265  eV     1   --> E              
     e( 17 - 17) =     -3.76092  eV     1   --> A              
     e( 18 - 18) =     -3.41781  eV     1   --> E*             
     e( 19 - 19) =     -1.69515  eV     1   --> A              
     e( 20 - 20) =     -1.69282  eV     1   --> E*             
     e( 21 - 21) =     -1.32332  eV     1   --> E              
     e( 22 - 22) =      0.92559  eV     1   --> A              
     e( 23 - 23) =      0.96694  eV     1   --> E              
     e( 24 - 24) =      2.05362  eV     1   --> E              
     e( 25 - 25) =      2.19106  eV     1   --> A              
     e( 26 - 26) =      2.80919  eV     1   --> E*             
     e( 27 - 27) =      5.28461  eV     1   --> E              
     e( 28 - 28) =      6.61268  eV     1   --> E*             
     e( 29 - 29) =      7.18248  eV     1   --> A              
     e( 30 - 30) =      7.95258  eV     1   --> E*             
     e( 31 - 31) =      8.38031  eV     1   --> A              
     e( 32 - 32) =      9.41670  eV     1   --> E              
     e( 33 - 33) =      9.47344  eV     1   --> E*             
     e( 34 - 34) =     10.65107  eV     1   --> A              
     e( 35 - 35) =     11.27443  eV     1   --> E              
     e( 36 - 36) =     11.84028  eV     1   --> A              
     e( 37 - 37) =     12.16169  eV     1   --> E              
     e( 38 - 38) =     12.18629  eV     1   --> E*             
     e( 39 - 39) =     12.66131  eV     1   --> E*             
     e( 40 - 40) =     12.79955  eV     1   --> A              
     e( 41 - 41) =     13.15533  eV     1   --> E              
     e( 42 - 42) =     13.35536  eV     1   --> E              
     e( 43 - 43) =     13.57777  eV     1   --> A              
     e( 44 - 44) =     13.65170  eV     1   --> E*             
     e( 45 - 45) =     13.78507  eV     1   --> A              
     e( 46 - 46) =     13.94371  eV     1   --> E*             

 **************************************************************************
 
     BANDS        :   5m25.84s CPU   6m36.83s WALL

 
   This run was terminated on:   3:55:18  11Jan2024            

=------------------------------------------------------------------------------=
   JOB DONE.
=------------------------------------------------------------------------------=
