export BASH_ENV=/etc/profile.d/modules.sh

     Program PWSCF v.7.2 starts on 11Jan2024 at  1:11:39 

     This program is part of the open-source Quantum ESPRESSO suite
     for quantum simulation of materials; please cite
         "P. Giannozzi et al., J. Phys.:Condens. Matter 21 395502 (2009);
         "P. Giannozzi et al., J. Phys.:Condens. Matter 29 465901 (2017);
         "P. Giannozzi et al., J. Chem. Phys. 152 154105 (2020);
          URL http://www.quantum-espresso.org", 
     in publications or presentations arising from this work. More details at
     http://www.quantum-espresso.org/quote

     Parallel version (MPI & OpenMP), running on       2 processor cores
     Number of MPI processes:                 2
     Threads/MPI process:                     1

     MPI processes distributed on     1 nodes
     61854 MiB available memory on the printing compute node when the environment starts
 
     Reading input from MoTe2_bands.in

     Current dimensions of program PWSCF are:
     Max number of different atomic species (ntypx) = 10
     Max number of k-points (npk) =  40000
     Max angular momentum in pseudopotentials (lmaxx) =  4

     Atomic positions and unit cell read from directory:
     ./outdir/MoTe2.save/
     Atomic positions from file used, from input discarded
 
 
     R & G space division:  proc/nbgrp/npool/nimage =       2
     Subspace diagonalization in iterative solution of the eigenvalue problem:
     a serial algorithm will be used

 
     Parallelization info
     --------------------
     sticks:   dense  smooth     PW     G-vecs:    dense   smooth      PW
     Min         411     411    120                67603    67603   10582
     Max         412     412    121                67614    67614   10599
     Sum         823     823    241               135217   135217   21181
 
     Using Slab Decomposition
 


     bravais-lattice index     =            4
     lattice parameter (alat)  =       6.0919  a.u.
     unit-cell volume          =    1397.8129 (a.u.)^3
     number of atoms/cell      =            3
     number of atomic types    =            2
     number of electrons       =        46.00
     number of Kohn-Sham states=           46
     kinetic-energy cutoff     =      80.0000  Ry
     charge density cutoff     =     320.0000  Ry
     Exchange-correlation= PBE
                           (   1   4   3   4   0   0   0)

     celldm(1)=   6.091936  celldm(2)=   0.000000  celldm(3)=   7.139248
     celldm(4)=   0.000000  celldm(5)=   0.000000  celldm(6)=   0.000000

     crystal axes: (cart. coord. in units of alat)
               a(1) = (   1.000000   0.000000   0.000000 )  
               a(2) = (  -0.500000   0.866025   0.000000 )  
               a(3) = (   0.000000   0.000000   7.139248 )  

     reciprocal axes: (cart. coord. in units 2 pi/alat)
               b(1) = (  1.000000  0.577350  0.000000 )  
               b(2) = (  0.000000  1.154701  0.000000 )  
               b(3) = (  0.000000  0.000000  0.140071 )  


     PseudoPot. # 1 for Mo read from file:
     ./Mo.upf
     MD5 check sum: 7ca7a9feba7bf08d88d14bc7fbf60c1e
     Pseudo is Norm-conserving + core correction, Zval = 14.0
     Generated using ONCVPSP code by D. R. Hamann
     Using radial grid of 1640 points,  6 beta functions with: 
                l(1) =   0
                l(2) =   0
                l(3) =   1
                l(4) =   1
                l(5) =   2
                l(6) =   2

     PseudoPot. # 2 for Te read from file:
     ./Te.upf
     MD5 check sum: 5809bc2f3532353a97804e96cbe9e3f7
     Pseudo is Norm-conserving + core correction, Zval = 16.0
     Generated using ONCVPSP code by D. R. Hamann
     Using radial grid of 1294 points,  9 beta functions with: 
                l(1) =   0
                l(2) =   0
                l(3) =   0
                l(4) =   1
                l(5) =   1
                l(6) =   2
                l(7) =   2
                l(8) =   3
                l(9) =   3

     atomic species   valence    mass     pseudopotential
        Mo            14.00    95.96000     Mo( 1.00)
        Te            16.00   127.60000     Te( 1.00)

      6 Sym. Ops. (no inversion) found


                                    s                        frac. trans.

      isym =  1     identity                                     

 cryst.   s( 1) = (     1          0          0      )
                  (     0          1          0      )
                  (     0          0          1      )

 cart.    s( 1) = (  1.0000000  0.0000000  0.0000000 )
                  (  0.0000000  1.0000000  0.0000000 )
                  (  0.0000000  0.0000000  1.0000000 )


      isym =  2     120 deg rotation - cryst. axis [0,0,1]       

 cryst.   s( 2) = (     0          1          0      )
                  (    -1         -1          0      )
                  (     0          0          1      )

 cart.    s( 2) = ( -0.5000000 -0.8660254  0.0000000 )
                  (  0.8660254 -0.5000000  0.0000000 )
                  (  0.0000000  0.0000000  1.0000000 )


      isym =  3     120 deg rotation - cryst. axis [0,0,-1]      

 cryst.   s( 3) = (    -1         -1          0      )
                  (     1          0          0      )
                  (     0          0          1      )

 cart.    s( 3) = ( -0.5000000  0.8660254  0.0000000 )
                  ( -0.8660254 -0.5000000  0.0000000 )
                  (  0.0000000  0.0000000  1.0000000 )


      isym =  4     inv. 180 deg rotation - cart. axis [1,0,0]   

 cryst.   s( 4) = (    -1          0          0      )
                  (     1          1          0      )
                  (     0          0          1      )

 cart.    s( 4) = ( -1.0000000 -0.0000000  0.0000000 )
                  (  0.0000000  1.0000000  0.0000000 )
                  (  0.0000000  0.0000000  1.0000000 )


      isym =  5     inv. 180 deg rotation - cryst. axis [0,1,0]  

 cryst.   s( 5) = (     1          1          0      )
                  (     0         -1          0      )
                  (     0          0          1      )

 cart.    s( 5) = (  0.5000000  0.8660254  0.0000000 )
                  (  0.8660254 -0.5000000  0.0000000 )
                  (  0.0000000  0.0000000  1.0000000 )


      isym =  6     inv. 180 deg rotation - cryst. axis [1,1,0]  

 cryst.   s( 6) = (     0         -1          0      )
                  (    -1          0          0      )
                  (     0          0          1      )

 cart.    s( 6) = (  0.5000000 -0.8660254  0.0000000 )
                  ( -0.8660254 -0.5000000  0.0000000 )
                  (  0.0000000  0.0000000  1.0000000 )


     point group C_3v (3m)  
     there are  3 classes
     the character table:

       E     2C3   3s_v 
A_1    1.00  1.00  1.00
A_2    1.00  1.00 -1.00
E      2.00 -1.00  0.00

     the symmetry operations in each class and the name of the first element:

     E        1
          identity                                               
     2C3      2    3
          120 deg rotation - cryst. axis [0,0,1]                 
     3s_v     4    5    6
          inv. 180 deg rotation - cart. axis [1,0,0]             

   Cartesian axes

     site n.     atom                  positions (alat units)
         1           Te  tau(   1) = (  -0.0000000   0.5773503   6.4732262  )
         2           Te  tau(   2) = (  -0.0000000   0.5773503   0.5799281  )
         3           Mo  tau(   3) = (   0.5000000   0.2886751   1.1679858  )

   Crystallographic axes

     site n.     atom                  positions (cryst. coord.)
         1           Te  tau(   1) = (  0.3333333  0.6666667  0.9067098  )
         2           Te  tau(   2) = (  0.3333333  0.6666667  0.0812310  )
         3           Mo  tau(   3) = (  0.6666667  0.3333333  0.1636007  )

     number of k points=   502
                       cart. coord. in units 2pi/alat
        k(    1) = (   0.0000000   0.0000000   0.0000000), wk =   0.0039841
        k(    2) = (   0.0113636   0.0065608   0.0000000), wk =   0.0039841
        k(    3) = (   0.0227273   0.0131216   0.0000000), wk =   0.0039841
        k(    4) = (   0.0340909   0.0196824   0.0000000), wk =   0.0039841
        k(    5) = (   0.0454545   0.0262432   0.0000000), wk =   0.0039841
        k(    6) = (   0.0568182   0.0328040   0.0000000), wk =   0.0039841
        k(    7) = (   0.0681818   0.0393648   0.0000000), wk =   0.0039841
        k(    8) = (   0.0795455   0.0459256   0.0000000), wk =   0.0039841
        k(    9) = (   0.0909091   0.0524864   0.0000000), wk =   0.0039841
        k(   10) = (   0.1022727   0.0590472   0.0000000), wk =   0.0039841
        k(   11) = (   0.1136364   0.0656080   0.0000000), wk =   0.0039841
        k(   12) = (   0.1250000   0.0721688   0.0000000), wk =   0.0039841
        k(   13) = (   0.1363636   0.0787296   0.0000000), wk =   0.0039841
        k(   14) = (   0.1477273   0.0852904   0.0000000), wk =   0.0039841
        k(   15) = (   0.1590909   0.0918512   0.0000000), wk =   0.0039841
        k(   16) = (   0.1704545   0.0984120   0.0000000), wk =   0.0039841
        k(   17) = (   0.1818182   0.1049728   0.0000000), wk =   0.0039841
        k(   18) = (   0.1931818   0.1115336   0.0000000), wk =   0.0039841
        k(   19) = (   0.2045455   0.1180944   0.0000000), wk =   0.0039841
        k(   20) = (   0.2159091   0.1246552   0.0000000), wk =   0.0039841
        k(   21) = (   0.2272727   0.1312160   0.0000000), wk =   0.0039841
        k(   22) = (   0.2386364   0.1377768   0.0000000), wk =   0.0039841
        k(   23) = (   0.2500000   0.1443376   0.0000000), wk =   0.0039841
        k(   24) = (   0.2613636   0.1508984   0.0000000), wk =   0.0039841
        k(   25) = (   0.2727273   0.1574592   0.0000000), wk =   0.0039841
        k(   26) = (   0.2840909   0.1640200   0.0000000), wk =   0.0039841
        k(   27) = (   0.2954545   0.1705808   0.0000000), wk =   0.0039841
        k(   28) = (   0.3068182   0.1771416   0.0000000), wk =   0.0039841
        k(   29) = (   0.3181818   0.1837024   0.0000000), wk =   0.0039841
        k(   30) = (   0.3295455   0.1902632   0.0000000), wk =   0.0039841
        k(   31) = (   0.3409091   0.1968240   0.0000000), wk =   0.0039841
        k(   32) = (   0.3522727   0.2033848   0.0000000), wk =   0.0039841
        k(   33) = (   0.3636364   0.2099456   0.0000000), wk =   0.0039841
        k(   34) = (   0.3750000   0.2165064   0.0000000), wk =   0.0039841
        k(   35) = (   0.3863636   0.2230671   0.0000000), wk =   0.0039841
        k(   36) = (   0.3977273   0.2296279   0.0000000), wk =   0.0039841
        k(   37) = (   0.4090909   0.2361887   0.0000000), wk =   0.0039841
        k(   38) = (   0.4204545   0.2427495   0.0000000), wk =   0.0039841
        k(   39) = (   0.4318182   0.2493103   0.0000000), wk =   0.0039841
        k(   40) = (   0.4431818   0.2558711   0.0000000), wk =   0.0039841
        k(   41) = (   0.4545455   0.2624319   0.0000000), wk =   0.0039841
        k(   42) = (   0.4659091   0.2689927   0.0000000), wk =   0.0039841
        k(   43) = (   0.4772727   0.2755535   0.0000000), wk =   0.0039841
        k(   44) = (   0.4886364   0.2821143   0.0000000), wk =   0.0039841
        k(   45) = (   0.5000000   0.2886751   0.0000000), wk =   0.0039841
        k(   46) = (   0.4930556   0.3007033   0.0000000), wk =   0.0039841
        k(   47) = (   0.4861111   0.3127314   0.0000000), wk =   0.0039841
        k(   48) = (   0.4791667   0.3247595   0.0000000), wk =   0.0039841
        k(   49) = (   0.4722222   0.3367877   0.0000000), wk =   0.0039841
        k(   50) = (   0.4652778   0.3488158   0.0000000), wk =   0.0039841
        k(   51) = (   0.4583333   0.3608439   0.0000000), wk =   0.0039841
        k(   52) = (   0.4513889   0.3728720   0.0000000), wk =   0.0039841
        k(   53) = (   0.4444444   0.3849002   0.0000000), wk =   0.0039841
        k(   54) = (   0.4375000   0.3969283   0.0000000), wk =   0.0039841
        k(   55) = (   0.4305556   0.4089564   0.0000000), wk =   0.0039841
        k(   56) = (   0.4236111   0.4209846   0.0000000), wk =   0.0039841
        k(   57) = (   0.4166667   0.4330127   0.0000000), wk =   0.0039841
        k(   58) = (   0.4097222   0.4450408   0.0000000), wk =   0.0039841
        k(   59) = (   0.4027778   0.4570690   0.0000000), wk =   0.0039841
        k(   60) = (   0.3958333   0.4690971   0.0000000), wk =   0.0039841
        k(   61) = (   0.3888889   0.4811252   0.0000000), wk =   0.0039841
        k(   62) = (   0.3819444   0.4931534   0.0000000), wk =   0.0039841
        k(   63) = (   0.3750000   0.5051815   0.0000000), wk =   0.0039841
        k(   64) = (   0.3680556   0.5172096   0.0000000), wk =   0.0039841
        k(   65) = (   0.3611111   0.5292377   0.0000000), wk =   0.0039841
        k(   66) = (   0.3541667   0.5412659   0.0000000), wk =   0.0039841
        k(   67) = (   0.3472222   0.5532940   0.0000000), wk =   0.0039841
        k(   68) = (   0.3402778   0.5653221   0.0000000), wk =   0.0039841
        k(   69) = (   0.3333333   0.5773503   0.0000000), wk =   0.0039841
        k(   70) = (   0.3266667   0.5658033   0.0000000), wk =   0.0039841
        k(   71) = (   0.3200000   0.5542563   0.0000000), wk =   0.0039841
        k(   72) = (   0.3133333   0.5427093   0.0000000), wk =   0.0039841
        k(   73) = (   0.3066667   0.5311622   0.0000000), wk =   0.0039841
        k(   74) = (   0.3000000   0.5196152   0.0000000), wk =   0.0039841
        k(   75) = (   0.2933333   0.5080682   0.0000000), wk =   0.0039841
        k(   76) = (   0.2866667   0.4965212   0.0000000), wk =   0.0039841
        k(   77) = (   0.2800000   0.4849742   0.0000000), wk =   0.0039841
        k(   78) = (   0.2733333   0.4734272   0.0000000), wk =   0.0039841
        k(   79) = (   0.2666667   0.4618802   0.0000000), wk =   0.0039841
        k(   80) = (   0.2600000   0.4503332   0.0000000), wk =   0.0039841
        k(   81) = (   0.2533333   0.4387862   0.0000000), wk =   0.0039841
        k(   82) = (   0.2466667   0.4272392   0.0000000), wk =   0.0039841
        k(   83) = (   0.2400000   0.4156922   0.0000000), wk =   0.0039841
        k(   84) = (   0.2333333   0.4041452   0.0000000), wk =   0.0039841
        k(   85) = (   0.2266667   0.3925982   0.0000000), wk =   0.0039841
        k(   86) = (   0.2200000   0.3810512   0.0000000), wk =   0.0039841
        k(   87) = (   0.2133333   0.3695042   0.0000000), wk =   0.0039841
        k(   88) = (   0.2066667   0.3579572   0.0000000), wk =   0.0039841
        k(   89) = (   0.2000000   0.3464102   0.0000000), wk =   0.0039841
        k(   90) = (   0.1933333   0.3348632   0.0000000), wk =   0.0039841
        k(   91) = (   0.1866667   0.3233162   0.0000000), wk =   0.0039841
        k(   92) = (   0.1800000   0.3117691   0.0000000), wk =   0.0039841
        k(   93) = (   0.1733333   0.3002221   0.0000000), wk =   0.0039841
        k(   94) = (   0.1666667   0.2886751   0.0000000), wk =   0.0039841
        k(   95) = (   0.1600000   0.2771281   0.0000000), wk =   0.0039841
        k(   96) = (   0.1533333   0.2655811   0.0000000), wk =   0.0039841
        k(   97) = (   0.1466667   0.2540341   0.0000000), wk =   0.0039841
        k(   98) = (   0.1400000   0.2424871   0.0000000), wk =   0.0039841
        k(   99) = (   0.1333333   0.2309401   0.0000000), wk =   0.0039841
        k(  100) = (   0.1266667   0.2193931   0.0000000), wk =   0.0039841
        k(  101) = (   0.1200000   0.2078461   0.0000000), wk =   0.0039841
        k(  102) = (   0.1133333   0.1962991   0.0000000), wk =   0.0039841
        k(  103) = (   0.1066667   0.1847521   0.0000000), wk =   0.0039841
        k(  104) = (   0.1000000   0.1732051   0.0000000), wk =   0.0039841
        k(  105) = (   0.0933333   0.1616581   0.0000000), wk =   0.0039841
        k(  106) = (   0.0866667   0.1501111   0.0000000), wk =   0.0039841
        k(  107) = (   0.0800000   0.1385641   0.0000000), wk =   0.0039841
        k(  108) = (   0.0733333   0.1270171   0.0000000), wk =   0.0039841
        k(  109) = (   0.0666667   0.1154701   0.0000000), wk =   0.0039841
        k(  110) = (   0.0600000   0.1039230   0.0000000), wk =   0.0039841
        k(  111) = (   0.0533333   0.0923760   0.0000000), wk =   0.0039841
        k(  112) = (   0.0466667   0.0808290   0.0000000), wk =   0.0039841
        k(  113) = (   0.0400000   0.0692820   0.0000000), wk =   0.0039841
        k(  114) = (   0.0333333   0.0577350   0.0000000), wk =   0.0039841
        k(  115) = (   0.0266667   0.0461880   0.0000000), wk =   0.0039841
        k(  116) = (   0.0200000   0.0346410   0.0000000), wk =   0.0039841
        k(  117) = (   0.0133333   0.0230940   0.0000000), wk =   0.0039841
        k(  118) = (   0.0066667   0.0115470   0.0000000), wk =   0.0039841
        k(  119) = (   0.0000000   0.0000000   0.0000000), wk =   0.0039841
        k(  120) = (   0.0000000   0.0000000   0.0175088), wk =   0.0039841
        k(  121) = (   0.0000000   0.0000000   0.0350177), wk =   0.0039841
        k(  122) = (   0.0000000   0.0000000   0.0525265), wk =   0.0039841
        k(  123) = (   0.0000000   0.0000000   0.0700354), wk =   0.0039841
        k(  124) = (   0.0113636   0.0065608   0.0700354), wk =   0.0039841
        k(  125) = (   0.0227273   0.0131216   0.0700354), wk =   0.0039841
        k(  126) = (   0.0340909   0.0196824   0.0700354), wk =   0.0039841
        k(  127) = (   0.0454545   0.0262432   0.0700354), wk =   0.0039841
        k(  128) = (   0.0568182   0.0328040   0.0700354), wk =   0.0039841
        k(  129) = (   0.0681818   0.0393648   0.0700354), wk =   0.0039841
        k(  130) = (   0.0795455   0.0459256   0.0700354), wk =   0.0039841
        k(  131) = (   0.0909091   0.0524864   0.0700354), wk =   0.0039841
        k(  132) = (   0.1022727   0.0590472   0.0700354), wk =   0.0039841
        k(  133) = (   0.1136364   0.0656080   0.0700354), wk =   0.0039841
        k(  134) = (   0.1250000   0.0721688   0.0700354), wk =   0.0039841
        k(  135) = (   0.1363636   0.0787296   0.0700354), wk =   0.0039841
        k(  136) = (   0.1477273   0.0852904   0.0700354), wk =   0.0039841
        k(  137) = (   0.1590909   0.0918512   0.0700354), wk =   0.0039841
        k(  138) = (   0.1704545   0.0984120   0.0700354), wk =   0.0039841
        k(  139) = (   0.1818182   0.1049728   0.0700354), wk =   0.0039841
        k(  140) = (   0.1931818   0.1115336   0.0700354), wk =   0.0039841
        k(  141) = (   0.2045455   0.1180944   0.0700354), wk =   0.0039841
        k(  142) = (   0.2159091   0.1246552   0.0700354), wk =   0.0039841
        k(  143) = (   0.2272727   0.1312160   0.0700354), wk =   0.0039841
        k(  144) = (   0.2386364   0.1377768   0.0700354), wk =   0.0039841
        k(  145) = (   0.2500000   0.1443376   0.0700354), wk =   0.0039841
        k(  146) = (   0.2613636   0.1508984   0.0700354), wk =   0.0039841
        k(  147) = (   0.2727273   0.1574592   0.0700354), wk =   0.0039841
        k(  148) = (   0.2840909   0.1640200   0.0700354), wk =   0.0039841
        k(  149) = (   0.2954545   0.1705808   0.0700354), wk =   0.0039841
        k(  150) = (   0.3068182   0.1771416   0.0700354), wk =   0.0039841
        k(  151) = (   0.3181818   0.1837024   0.0700354), wk =   0.0039841
        k(  152) = (   0.3295455   0.1902632   0.0700354), wk =   0.0039841
        k(  153) = (   0.3409091   0.1968240   0.0700354), wk =   0.0039841
        k(  154) = (   0.3522727   0.2033848   0.0700354), wk =   0.0039841
        k(  155) = (   0.3636364   0.2099456   0.0700354), wk =   0.0039841
        k(  156) = (   0.3750000   0.2165064   0.0700354), wk =   0.0039841
        k(  157) = (   0.3863636   0.2230671   0.0700354), wk =   0.0039841
        k(  158) = (   0.3977273   0.2296279   0.0700354), wk =   0.0039841
        k(  159) = (   0.4090909   0.2361887   0.0700354), wk =   0.0039841
        k(  160) = (   0.4204545   0.2427495   0.0700354), wk =   0.0039841
        k(  161) = (   0.4318182   0.2493103   0.0700354), wk =   0.0039841
        k(  162) = (   0.4431818   0.2558711   0.0700354), wk =   0.0039841
        k(  163) = (   0.4545455   0.2624319   0.0700354), wk =   0.0039841
        k(  164) = (   0.4659091   0.2689927   0.0700354), wk =   0.0039841
        k(  165) = (   0.4772727   0.2755535   0.0700354), wk =   0.0039841
        k(  166) = (   0.4886364   0.2821143   0.0700354), wk =   0.0039841
        k(  167) = (   0.5000000   0.2886751   0.0700354), wk =   0.0039841
        k(  168) = (   0.4930556   0.3007033   0.0700354), wk =   0.0039841
        k(  169) = (   0.4861111   0.3127314   0.0700354), wk =   0.0039841
        k(  170) = (   0.4791667   0.3247595   0.0700354), wk =   0.0039841
        k(  171) = (   0.4722222   0.3367877   0.0700354), wk =   0.0039841
        k(  172) = (   0.4652778   0.3488158   0.0700354), wk =   0.0039841
        k(  173) = (   0.4583333   0.3608439   0.0700354), wk =   0.0039841
        k(  174) = (   0.4513889   0.3728720   0.0700354), wk =   0.0039841
        k(  175) = (   0.4444444   0.3849002   0.0700354), wk =   0.0039841
        k(  176) = (   0.4375000   0.3969283   0.0700354), wk =   0.0039841
        k(  177) = (   0.4305556   0.4089564   0.0700354), wk =   0.0039841
        k(  178) = (   0.4236111   0.4209846   0.0700354), wk =   0.0039841
        k(  179) = (   0.4166667   0.4330127   0.0700354), wk =   0.0039841
        k(  180) = (   0.4097222   0.4450408   0.0700354), wk =   0.0039841
        k(  181) = (   0.4027778   0.4570690   0.0700354), wk =   0.0039841
        k(  182) = (   0.3958333   0.4690971   0.0700354), wk =   0.0039841
        k(  183) = (   0.3888889   0.4811252   0.0700354), wk =   0.0039841
        k(  184) = (   0.3819444   0.4931534   0.0700354), wk =   0.0039841
        k(  185) = (   0.3750000   0.5051815   0.0700354), wk =   0.0039841
        k(  186) = (   0.3680556   0.5172096   0.0700354), wk =   0.0039841
        k(  187) = (   0.3611111   0.5292377   0.0700354), wk =   0.0039841
        k(  188) = (   0.3541667   0.5412659   0.0700354), wk =   0.0039841
        k(  189) = (   0.3472222   0.5532940   0.0700354), wk =   0.0039841
        k(  190) = (   0.3402778   0.5653221   0.0700354), wk =   0.0039841
        k(  191) = (   0.3333333   0.5773503   0.0700354), wk =   0.0039841
        k(  192) = (   0.3266667   0.5658033   0.0700354), wk =   0.0039841
        k(  193) = (   0.3200000   0.5542563   0.0700354), wk =   0.0039841
        k(  194) = (   0.3133333   0.5427093   0.0700354), wk =   0.0039841
        k(  195) = (   0.3066667   0.5311622   0.0700354), wk =   0.0039841
        k(  196) = (   0.3000000   0.5196152   0.0700354), wk =   0.0039841
        k(  197) = (   0.2933333   0.5080682   0.0700354), wk =   0.0039841
        k(  198) = (   0.2866667   0.4965212   0.0700354), wk =   0.0039841
        k(  199) = (   0.2800000   0.4849742   0.0700354), wk =   0.0039841
        k(  200) = (   0.2733333   0.4734272   0.0700354), wk =   0.0039841
        k(  201) = (   0.2666667   0.4618802   0.0700354), wk =   0.0039841
        k(  202) = (   0.2600000   0.4503332   0.0700354), wk =   0.0039841
        k(  203) = (   0.2533333   0.4387862   0.0700354), wk =   0.0039841
        k(  204) = (   0.2466667   0.4272392   0.0700354), wk =   0.0039841
        k(  205) = (   0.2400000   0.4156922   0.0700354), wk =   0.0039841
        k(  206) = (   0.2333333   0.4041452   0.0700354), wk =   0.0039841
        k(  207) = (   0.2266667   0.3925982   0.0700354), wk =   0.0039841
        k(  208) = (   0.2200000   0.3810512   0.0700354), wk =   0.0039841
        k(  209) = (   0.2133333   0.3695042   0.0700354), wk =   0.0039841
        k(  210) = (   0.2066667   0.3579572   0.0700354), wk =   0.0039841
        k(  211) = (   0.2000000   0.3464102   0.0700354), wk =   0.0039841
        k(  212) = (   0.1933333   0.3348632   0.0700354), wk =   0.0039841
        k(  213) = (   0.1866667   0.3233162   0.0700354), wk =   0.0039841
        k(  214) = (   0.1800000   0.3117691   0.0700354), wk =   0.0039841
        k(  215) = (   0.1733333   0.3002221   0.0700354), wk =   0.0039841
        k(  216) = (   0.1666667   0.2886751   0.0700354), wk =   0.0039841
        k(  217) = (   0.1600000   0.2771281   0.0700354), wk =   0.0039841
        k(  218) = (   0.1533333   0.2655811   0.0700354), wk =   0.0039841
        k(  219) = (   0.1466667   0.2540341   0.0700354), wk =   0.0039841
        k(  220) = (   0.1400000   0.2424871   0.0700354), wk =   0.0039841
        k(  221) = (   0.1333333   0.2309401   0.0700354), wk =   0.0039841
        k(  222) = (   0.1266667   0.2193931   0.0700354), wk =   0.0039841
        k(  223) = (   0.1200000   0.2078461   0.0700354), wk =   0.0039841
        k(  224) = (   0.1133333   0.1962991   0.0700354), wk =   0.0039841
        k(  225) = (   0.1066667   0.1847521   0.0700354), wk =   0.0039841
        k(  226) = (   0.1000000   0.1732051   0.0700354), wk =   0.0039841
        k(  227) = (   0.0933333   0.1616581   0.0700354), wk =   0.0039841
        k(  228) = (   0.0866667   0.1501111   0.0700354), wk =   0.0039841
        k(  229) = (   0.0800000   0.1385641   0.0700354), wk =   0.0039841
        k(  230) = (   0.0733333   0.1270171   0.0700354), wk =   0.0039841
        k(  231) = (   0.0666667   0.1154701   0.0700354), wk =   0.0039841
        k(  232) = (   0.0600000   0.1039230   0.0700354), wk =   0.0039841
        k(  233) = (   0.0533333   0.0923760   0.0700354), wk =   0.0039841
        k(  234) = (   0.0466667   0.0808290   0.0700354), wk =   0.0039841
        k(  235) = (   0.0400000   0.0692820   0.0700354), wk =   0.0039841
        k(  236) = (   0.0333333   0.0577350   0.0700354), wk =   0.0039841
        k(  237) = (   0.0266667   0.0461880   0.0700354), wk =   0.0039841
        k(  238) = (   0.0200000   0.0346410   0.0700354), wk =   0.0039841
        k(  239) = (   0.0133333   0.0230940   0.0700354), wk =   0.0039841
        k(  240) = (   0.0066667   0.0115470   0.0700354), wk =   0.0039841
        k(  241) = (   0.0000000   0.0000000   0.0700354), wk =   0.0039841
        k(  242) = (   0.5000000   0.2886751   0.0700354), wk =   0.0039841
        k(  243) = (   0.5000000   0.2886751   0.0525265), wk =   0.0039841
        k(  244) = (   0.5000000   0.2886751   0.0350177), wk =   0.0039841
        k(  245) = (   0.5000000   0.2886751   0.0175088), wk =   0.0039841
        k(  246) = (   0.5000000   0.2886751   0.0000000), wk =   0.0039841
        k(  247) = (   0.3333333   0.5773503   0.0700354), wk =   0.0039841
        k(  248) = (   0.3333333   0.5773503   0.0525265), wk =   0.0039841
        k(  249) = (   0.3333333   0.5773503   0.0350177), wk =   0.0039841
        k(  250) = (   0.3333333   0.5773503   0.0175088), wk =   0.0039841
        k(  251) = (   0.3333333   0.5773503   0.0000000), wk =   0.0039841
        k(  252) = (   0.0000000   0.0000000   0.0000000), wk =   0.0039841
        k(  253) = (  -0.0113636  -0.0065608   0.0000000), wk =   0.0039841
        k(  254) = (  -0.0227273  -0.0131216   0.0000000), wk =   0.0039841
        k(  255) = (  -0.0340909  -0.0196824   0.0000000), wk =   0.0039841
        k(  256) = (  -0.0454545  -0.0262432   0.0000000), wk =   0.0039841
        k(  257) = (  -0.0568182  -0.0328040   0.0000000), wk =   0.0039841
        k(  258) = (  -0.0681818  -0.0393648   0.0000000), wk =   0.0039841
        k(  259) = (  -0.0795455  -0.0459256   0.0000000), wk =   0.0039841
        k(  260) = (  -0.0909091  -0.0524864   0.0000000), wk =   0.0039841
        k(  261) = (  -0.1022727  -0.0590472   0.0000000), wk =   0.0039841
        k(  262) = (  -0.1136364  -0.0656080   0.0000000), wk =   0.0039841
        k(  263) = (  -0.1250000  -0.0721688   0.0000000), wk =   0.0039841
        k(  264) = (  -0.1363636  -0.0787296   0.0000000), wk =   0.0039841
        k(  265) = (  -0.1477273  -0.0852904   0.0000000), wk =   0.0039841
        k(  266) = (  -0.1590909  -0.0918512   0.0000000), wk =   0.0039841
        k(  267) = (  -0.1704545  -0.0984120   0.0000000), wk =   0.0039841
        k(  268) = (  -0.1818182  -0.1049728   0.0000000), wk =   0.0039841
        k(  269) = (  -0.1931818  -0.1115336   0.0000000), wk =   0.0039841
        k(  270) = (  -0.2045455  -0.1180944   0.0000000), wk =   0.0039841
        k(  271) = (  -0.2159091  -0.1246552   0.0000000), wk =   0.0039841
        k(  272) = (  -0.2272727  -0.1312160   0.0000000), wk =   0.0039841
        k(  273) = (  -0.2386364  -0.1377768   0.0000000), wk =   0.0039841
        k(  274) = (  -0.2500000  -0.1443376   0.0000000), wk =   0.0039841
        k(  275) = (  -0.2613636  -0.1508984   0.0000000), wk =   0.0039841
        k(  276) = (  -0.2727273  -0.1574592   0.0000000), wk =   0.0039841
        k(  277) = (  -0.2840909  -0.1640200   0.0000000), wk =   0.0039841
        k(  278) = (  -0.2954545  -0.1705808   0.0000000), wk =   0.0039841
        k(  279) = (  -0.3068182  -0.1771416   0.0000000), wk =   0.0039841
        k(  280) = (  -0.3181818  -0.1837024   0.0000000), wk =   0.0039841
        k(  281) = (  -0.3295455  -0.1902632   0.0000000), wk =   0.0039841
        k(  282) = (  -0.3409091  -0.1968240   0.0000000), wk =   0.0039841
        k(  283) = (  -0.3522727  -0.2033848   0.0000000), wk =   0.0039841
        k(  284) = (  -0.3636364  -0.2099456   0.0000000), wk =   0.0039841
        k(  285) = (  -0.3750000  -0.2165064   0.0000000), wk =   0.0039841
        k(  286) = (  -0.3863636  -0.2230671   0.0000000), wk =   0.0039841
        k(  287) = (  -0.3977273  -0.2296279   0.0000000), wk =   0.0039841
        k(  288) = (  -0.4090909  -0.2361887   0.0000000), wk =   0.0039841
        k(  289) = (  -0.4204545  -0.2427495   0.0000000), wk =   0.0039841
        k(  290) = (  -0.4318182  -0.2493103   0.0000000), wk =   0.0039841
        k(  291) = (  -0.4431818  -0.2558711   0.0000000), wk =   0.0039841
        k(  292) = (  -0.4545455  -0.2624319   0.0000000), wk =   0.0039841
        k(  293) = (  -0.4659091  -0.2689927   0.0000000), wk =   0.0039841
        k(  294) = (  -0.4772727  -0.2755535   0.0000000), wk =   0.0039841
        k(  295) = (  -0.4886364  -0.2821143   0.0000000), wk =   0.0039841
        k(  296) = (  -0.5000000  -0.2886751   0.0000000), wk =   0.0039841
        k(  297) = (  -0.4930556  -0.3007033   0.0000000), wk =   0.0039841
        k(  298) = (  -0.4861111  -0.3127314   0.0000000), wk =   0.0039841
        k(  299) = (  -0.4791667  -0.3247595   0.0000000), wk =   0.0039841
        k(  300) = (  -0.4722222  -0.3367877   0.0000000), wk =   0.0039841
        k(  301) = (  -0.4652778  -0.3488158   0.0000000), wk =   0.0039841
        k(  302) = (  -0.4583333  -0.3608439   0.0000000), wk =   0.0039841
        k(  303) = (  -0.4513889  -0.3728720   0.0000000), wk =   0.0039841
        k(  304) = (  -0.4444444  -0.3849002   0.0000000), wk =   0.0039841
        k(  305) = (  -0.4375000  -0.3969283   0.0000000), wk =   0.0039841
        k(  306) = (  -0.4305556  -0.4089564   0.0000000), wk =   0.0039841
        k(  307) = (  -0.4236111  -0.4209846   0.0000000), wk =   0.0039841
        k(  308) = (  -0.4166667  -0.4330127   0.0000000), wk =   0.0039841
        k(  309) = (  -0.4097222  -0.4450408   0.0000000), wk =   0.0039841
        k(  310) = (  -0.4027778  -0.4570690   0.0000000), wk =   0.0039841
        k(  311) = (  -0.3958333  -0.4690971   0.0000000), wk =   0.0039841
        k(  312) = (  -0.3888889  -0.4811252   0.0000000), wk =   0.0039841
        k(  313) = (  -0.3819444  -0.4931534   0.0000000), wk =   0.0039841
        k(  314) = (  -0.3750000  -0.5051815   0.0000000), wk =   0.0039841
        k(  315) = (  -0.3680556  -0.5172096   0.0000000), wk =   0.0039841
        k(  316) = (  -0.3611111  -0.5292377   0.0000000), wk =   0.0039841
        k(  317) = (  -0.3541667  -0.5412659   0.0000000), wk =   0.0039841
        k(  318) = (  -0.3472222  -0.5532940   0.0000000), wk =   0.0039841
        k(  319) = (  -0.3402778  -0.5653221   0.0000000), wk =   0.0039841
        k(  320) = (  -0.3333333  -0.5773503   0.0000000), wk =   0.0039841
        k(  321) = (  -0.3266667  -0.5658033   0.0000000), wk =   0.0039841
        k(  322) = (  -0.3200000  -0.5542563   0.0000000), wk =   0.0039841
        k(  323) = (  -0.3133333  -0.5427093   0.0000000), wk =   0.0039841
        k(  324) = (  -0.3066667  -0.5311622   0.0000000), wk =   0.0039841
        k(  325) = (  -0.3000000  -0.5196152   0.0000000), wk =   0.0039841
        k(  326) = (  -0.2933333  -0.5080682   0.0000000), wk =   0.0039841
        k(  327) = (  -0.2866667  -0.4965212   0.0000000), wk =   0.0039841
        k(  328) = (  -0.2800000  -0.4849742   0.0000000), wk =   0.0039841
        k(  329) = (  -0.2733333  -0.4734272   0.0000000), wk =   0.0039841
        k(  330) = (  -0.2666667  -0.4618802   0.0000000), wk =   0.0039841
        k(  331) = (  -0.2600000  -0.4503332   0.0000000), wk =   0.0039841
        k(  332) = (  -0.2533333  -0.4387862   0.0000000), wk =   0.0039841
        k(  333) = (  -0.2466667  -0.4272392   0.0000000), wk =   0.0039841
        k(  334) = (  -0.2400000  -0.4156922   0.0000000), wk =   0.0039841
        k(  335) = (  -0.2333333  -0.4041452   0.0000000), wk =   0.0039841
        k(  336) = (  -0.2266667  -0.3925982   0.0000000), wk =   0.0039841
        k(  337) = (  -0.2200000  -0.3810512   0.0000000), wk =   0.0039841
        k(  338) = (  -0.2133333  -0.3695042   0.0000000), wk =   0.0039841
        k(  339) = (  -0.2066667  -0.3579572   0.0000000), wk =   0.0039841
        k(  340) = (  -0.2000000  -0.3464102   0.0000000), wk =   0.0039841
        k(  341) = (  -0.1933333  -0.3348632   0.0000000), wk =   0.0039841
        k(  342) = (  -0.1866667  -0.3233162   0.0000000), wk =   0.0039841
        k(  343) = (  -0.1800000  -0.3117691   0.0000000), wk =   0.0039841
        k(  344) = (  -0.1733333  -0.3002221   0.0000000), wk =   0.0039841
        k(  345) = (  -0.1666667  -0.2886751   0.0000000), wk =   0.0039841
        k(  346) = (  -0.1600000  -0.2771281   0.0000000), wk =   0.0039841
        k(  347) = (  -0.1533333  -0.2655811   0.0000000), wk =   0.0039841
        k(  348) = (  -0.1466667  -0.2540341   0.0000000), wk =   0.0039841
        k(  349) = (  -0.1400000  -0.2424871   0.0000000), wk =   0.0039841
        k(  350) = (  -0.1333333  -0.2309401   0.0000000), wk =   0.0039841
        k(  351) = (  -0.1266667  -0.2193931   0.0000000), wk =   0.0039841
        k(  352) = (  -0.1200000  -0.2078461   0.0000000), wk =   0.0039841
        k(  353) = (  -0.1133333  -0.1962991   0.0000000), wk =   0.0039841
        k(  354) = (  -0.1066667  -0.1847521   0.0000000), wk =   0.0039841
        k(  355) = (  -0.1000000  -0.1732051   0.0000000), wk =   0.0039841
        k(  356) = (  -0.0933333  -0.1616581   0.0000000), wk =   0.0039841
        k(  357) = (  -0.0866667  -0.1501111   0.0000000), wk =   0.0039841
        k(  358) = (  -0.0800000  -0.1385641   0.0000000), wk =   0.0039841
        k(  359) = (  -0.0733333  -0.1270171   0.0000000), wk =   0.0039841
        k(  360) = (  -0.0666667  -0.1154701   0.0000000), wk =   0.0039841
        k(  361) = (  -0.0600000  -0.1039230   0.0000000), wk =   0.0039841
        k(  362) = (  -0.0533333  -0.0923760   0.0000000), wk =   0.0039841
        k(  363) = (  -0.0466667  -0.0808290   0.0000000), wk =   0.0039841
        k(  364) = (  -0.0400000  -0.0692820   0.0000000), wk =   0.0039841
        k(  365) = (  -0.0333333  -0.0577350   0.0000000), wk =   0.0039841
        k(  366) = (  -0.0266667  -0.0461880   0.0000000), wk =   0.0039841
        k(  367) = (  -0.0200000  -0.0346410   0.0000000), wk =   0.0039841
        k(  368) = (  -0.0133333  -0.0230940   0.0000000), wk =   0.0039841
        k(  369) = (  -0.0066667  -0.0115470   0.0000000), wk =   0.0039841
        k(  370) = (   0.0000000   0.0000000   0.0000000), wk =   0.0039841
        k(  371) = (   0.0000000   0.0000000  -0.0175088), wk =   0.0039841
        k(  372) = (   0.0000000   0.0000000  -0.0350177), wk =   0.0039841
        k(  373) = (   0.0000000   0.0000000  -0.0525265), wk =   0.0039841
        k(  374) = (   0.0000000   0.0000000  -0.0700354), wk =   0.0039841
        k(  375) = (  -0.0113636  -0.0065608  -0.0700354), wk =   0.0039841
        k(  376) = (  -0.0227273  -0.0131216  -0.0700354), wk =   0.0039841
        k(  377) = (  -0.0340909  -0.0196824  -0.0700354), wk =   0.0039841
        k(  378) = (  -0.0454545  -0.0262432  -0.0700354), wk =   0.0039841
        k(  379) = (  -0.0568182  -0.0328040  -0.0700354), wk =   0.0039841
        k(  380) = (  -0.0681818  -0.0393648  -0.0700354), wk =   0.0039841
        k(  381) = (  -0.0795455  -0.0459256  -0.0700354), wk =   0.0039841
        k(  382) = (  -0.0909091  -0.0524864  -0.0700354), wk =   0.0039841
        k(  383) = (  -0.1022727  -0.0590472  -0.0700354), wk =   0.0039841
        k(  384) = (  -0.1136364  -0.0656080  -0.0700354), wk =   0.0039841
        k(  385) = (  -0.1250000  -0.0721688  -0.0700354), wk =   0.0039841
        k(  386) = (  -0.1363636  -0.0787296  -0.0700354), wk =   0.0039841
        k(  387) = (  -0.1477273  -0.0852904  -0.0700354), wk =   0.0039841
        k(  388) = (  -0.1590909  -0.0918512  -0.0700354), wk =   0.0039841
        k(  389) = (  -0.1704545  -0.0984120  -0.0700354), wk =   0.0039841
        k(  390) = (  -0.1818182  -0.1049728  -0.0700354), wk =   0.0039841
        k(  391) = (  -0.1931818  -0.1115336  -0.0700354), wk =   0.0039841
        k(  392) = (  -0.2045455  -0.1180944  -0.0700354), wk =   0.0039841
        k(  393) = (  -0.2159091  -0.1246552  -0.0700354), wk =   0.0039841
        k(  394) = (  -0.2272727  -0.1312160  -0.0700354), wk =   0.0039841
        k(  395) = (  -0.2386364  -0.1377768  -0.0700354), wk =   0.0039841
        k(  396) = (  -0.2500000  -0.1443376  -0.0700354), wk =   0.0039841
        k(  397) = (  -0.2613636  -0.1508984  -0.0700354), wk =   0.0039841
        k(  398) = (  -0.2727273  -0.1574592  -0.0700354), wk =   0.0039841
        k(  399) = (  -0.2840909  -0.1640200  -0.0700354), wk =   0.0039841
        k(  400) = (  -0.2954545  -0.1705808  -0.0700354), wk =   0.0039841
        k(  401) = (  -0.3068182  -0.1771416  -0.0700354), wk =   0.0039841
        k(  402) = (  -0.3181818  -0.1837024  -0.0700354), wk =   0.0039841
        k(  403) = (  -0.3295455  -0.1902632  -0.0700354), wk =   0.0039841
        k(  404) = (  -0.3409091  -0.1968240  -0.0700354), wk =   0.0039841
        k(  405) = (  -0.3522727  -0.2033848  -0.0700354), wk =   0.0039841
        k(  406) = (  -0.3636364  -0.2099456  -0.0700354), wk =   0.0039841
        k(  407) = (  -0.3750000  -0.2165064  -0.0700354), wk =   0.0039841
        k(  408) = (  -0.3863636  -0.2230671  -0.0700354), wk =   0.0039841
        k(  409) = (  -0.3977273  -0.2296279  -0.0700354), wk =   0.0039841
        k(  410) = (  -0.4090909  -0.2361887  -0.0700354), wk =   0.0039841
        k(  411) = (  -0.4204545  -0.2427495  -0.0700354), wk =   0.0039841
        k(  412) = (  -0.4318182  -0.2493103  -0.0700354), wk =   0.0039841
        k(  413) = (  -0.4431818  -0.2558711  -0.0700354), wk =   0.0039841
        k(  414) = (  -0.4545455  -0.2624319  -0.0700354), wk =   0.0039841
        k(  415) = (  -0.4659091  -0.2689927  -0.0700354), wk =   0.0039841
        k(  416) = (  -0.4772727  -0.2755535  -0.0700354), wk =   0.0039841
        k(  417) = (  -0.4886364  -0.2821143  -0.0700354), wk =   0.0039841
        k(  418) = (  -0.5000000  -0.2886751  -0.0700354), wk =   0.0039841
        k(  419) = (  -0.4930556  -0.3007033  -0.0700354), wk =   0.0039841
        k(  420) = (  -0.4861111  -0.3127314  -0.0700354), wk =   0.0039841
        k(  421) = (  -0.4791667  -0.3247595  -0.0700354), wk =   0.0039841
        k(  422) = (  -0.4722222  -0.3367877  -0.0700354), wk =   0.0039841
        k(  423) = (  -0.4652778  -0.3488158  -0.0700354), wk =   0.0039841
        k(  424) = (  -0.4583333  -0.3608439  -0.0700354), wk =   0.0039841
        k(  425) = (  -0.4513889  -0.3728720  -0.0700354), wk =   0.0039841
        k(  426) = (  -0.4444444  -0.3849002  -0.0700354), wk =   0.0039841
        k(  427) = (  -0.4375000  -0.3969283  -0.0700354), wk =   0.0039841
        k(  428) = (  -0.4305556  -0.4089564  -0.0700354), wk =   0.0039841
        k(  429) = (  -0.4236111  -0.4209846  -0.0700354), wk =   0.0039841
        k(  430) = (  -0.4166667  -0.4330127  -0.0700354), wk =   0.0039841
        k(  431) = (  -0.4097222  -0.4450408  -0.0700354), wk =   0.0039841
        k(  432) = (  -0.4027778  -0.4570690  -0.0700354), wk =   0.0039841
        k(  433) = (  -0.3958333  -0.4690971  -0.0700354), wk =   0.0039841
        k(  434) = (  -0.3888889  -0.4811252  -0.0700354), wk =   0.0039841
        k(  435) = (  -0.3819444  -0.4931534  -0.0700354), wk =   0.0039841
        k(  436) = (  -0.3750000  -0.5051815  -0.0700354), wk =   0.0039841
        k(  437) = (  -0.3680556  -0.5172096  -0.0700354), wk =   0.0039841
        k(  438) = (  -0.3611111  -0.5292377  -0.0700354), wk =   0.0039841
        k(  439) = (  -0.3541667  -0.5412659  -0.0700354), wk =   0.0039841
        k(  440) = (  -0.3472222  -0.5532940  -0.0700354), wk =   0.0039841
        k(  441) = (  -0.3402778  -0.5653221  -0.0700354), wk =   0.0039841
        k(  442) = (  -0.3333333  -0.5773503  -0.0700354), wk =   0.0039841
        k(  443) = (  -0.3266667  -0.5658033  -0.0700354), wk =   0.0039841
        k(  444) = (  -0.3200000  -0.5542563  -0.0700354), wk =   0.0039841
        k(  445) = (  -0.3133333  -0.5427093  -0.0700354), wk =   0.0039841
        k(  446) = (  -0.3066667  -0.5311622  -0.0700354), wk =   0.0039841
        k(  447) = (  -0.3000000  -0.5196152  -0.0700354), wk =   0.0039841
        k(  448) = (  -0.2933333  -0.5080682  -0.0700354), wk =   0.0039841
        k(  449) = (  -0.2866667  -0.4965212  -0.0700354), wk =   0.0039841
        k(  450) = (  -0.2800000  -0.4849742  -0.0700354), wk =   0.0039841
        k(  451) = (  -0.2733333  -0.4734272  -0.0700354), wk =   0.0039841
        k(  452) = (  -0.2666667  -0.4618802  -0.0700354), wk =   0.0039841
        k(  453) = (  -0.2600000  -0.4503332  -0.0700354), wk =   0.0039841
        k(  454) = (  -0.2533333  -0.4387862  -0.0700354), wk =   0.0039841
        k(  455) = (  -0.2466667  -0.4272392  -0.0700354), wk =   0.0039841
        k(  456) = (  -0.2400000  -0.4156922  -0.0700354), wk =   0.0039841
        k(  457) = (  -0.2333333  -0.4041452  -0.0700354), wk =   0.0039841
        k(  458) = (  -0.2266667  -0.3925982  -0.0700354), wk =   0.0039841
        k(  459) = (  -0.2200000  -0.3810512  -0.0700354), wk =   0.0039841
        k(  460) = (  -0.2133333  -0.3695042  -0.0700354), wk =   0.0039841
        k(  461) = (  -0.2066667  -0.3579572  -0.0700354), wk =   0.0039841
        k(  462) = (  -0.2000000  -0.3464102  -0.0700354), wk =   0.0039841
        k(  463) = (  -0.1933333  -0.3348632  -0.0700354), wk =   0.0039841
        k(  464) = (  -0.1866667  -0.3233162  -0.0700354), wk =   0.0039841
        k(  465) = (  -0.1800000  -0.3117691  -0.0700354), wk =   0.0039841
        k(  466) = (  -0.1733333  -0.3002221  -0.0700354), wk =   0.0039841
        k(  467) = (  -0.1666667  -0.2886751  -0.0700354), wk =   0.0039841
        k(  468) = (  -0.1600000  -0.2771281  -0.0700354), wk =   0.0039841
        k(  469) = (  -0.1533333  -0.2655811  -0.0700354), wk =   0.0039841
        k(  470) = (  -0.1466667  -0.2540341  -0.0700354), wk =   0.0039841
        k(  471) = (  -0.1400000  -0.2424871  -0.0700354), wk =   0.0039841
        k(  472) = (  -0.1333333  -0.2309401  -0.0700354), wk =   0.0039841
        k(  473) = (  -0.1266667  -0.2193931  -0.0700354), wk =   0.0039841
        k(  474) = (  -0.1200000  -0.2078461  -0.0700354), wk =   0.0039841
        k(  475) = (  -0.1133333  -0.1962991  -0.0700354), wk =   0.0039841
        k(  476) = (  -0.1066667  -0.1847521  -0.0700354), wk =   0.0039841
        k(  477) = (  -0.1000000  -0.1732051  -0.0700354), wk =   0.0039841
        k(  478) = (  -0.0933333  -0.1616581  -0.0700354), wk =   0.0039841
        k(  479) = (  -0.0866667  -0.1501111  -0.0700354), wk =   0.0039841
        k(  480) = (  -0.0800000  -0.1385641  -0.0700354), wk =   0.0039841
        k(  481) = (  -0.0733333  -0.1270171  -0.0700354), wk =   0.0039841
        k(  482) = (  -0.0666667  -0.1154701  -0.0700354), wk =   0.0039841
        k(  483) = (  -0.0600000  -0.1039230  -0.0700354), wk =   0.0039841
        k(  484) = (  -0.0533333  -0.0923760  -0.0700354), wk =   0.0039841
        k(  485) = (  -0.0466667  -0.0808290  -0.0700354), wk =   0.0039841
        k(  486) = (  -0.0400000  -0.0692820  -0.0700354), wk =   0.0039841
        k(  487) = (  -0.0333333  -0.0577350  -0.0700354), wk =   0.0039841
        k(  488) = (  -0.0266667  -0.0461880  -0.0700354), wk =   0.0039841
        k(  489) = (  -0.0200000  -0.0346410  -0.0700354), wk =   0.0039841
        k(  490) = (  -0.0133333  -0.0230940  -0.0700354), wk =   0.0039841
        k(  491) = (  -0.0066667  -0.0115470  -0.0700354), wk =   0.0039841
        k(  492) = (   0.0000000   0.0000000  -0.0700354), wk =   0.0039841
        k(  493) = (  -0.5000000  -0.2886751  -0.0700354), wk =   0.0039841
        k(  494) = (  -0.5000000  -0.2886751  -0.0525265), wk =   0.0039841
        k(  495) = (  -0.5000000  -0.2886751  -0.0350177), wk =   0.0039841
        k(  496) = (  -0.5000000  -0.2886751  -0.0175088), wk =   0.0039841
        k(  497) = (  -0.5000000  -0.2886751   0.0000000), wk =   0.0039841
        k(  498) = (  -0.3333333  -0.5773503  -0.0700354), wk =   0.0039841
        k(  499) = (  -0.3333333  -0.5773503  -0.0525265), wk =   0.0039841
        k(  500) = (  -0.3333333  -0.5773503  -0.0350177), wk =   0.0039841
        k(  501) = (  -0.3333333  -0.5773503  -0.0175088), wk =   0.0039841
        k(  502) = (  -0.3333333  -0.5773503   0.0000000), wk =   0.0039841

                       cryst. coord.
        k(    1) = (   0.0000000   0.0000000   0.0000000), wk =   0.0039841
        k(    2) = (   0.0113636   0.0000000   0.0000000), wk =   0.0039841
        k(    3) = (   0.0227273   0.0000000   0.0000000), wk =   0.0039841
        k(    4) = (   0.0340909   0.0000000   0.0000000), wk =   0.0039841
        k(    5) = (   0.0454545   0.0000000   0.0000000), wk =   0.0039841
        k(    6) = (   0.0568182   0.0000000   0.0000000), wk =   0.0039841
        k(    7) = (   0.0681818   0.0000000   0.0000000), wk =   0.0039841
        k(    8) = (   0.0795455   0.0000000   0.0000000), wk =   0.0039841
        k(    9) = (   0.0909091   0.0000000   0.0000000), wk =   0.0039841
        k(   10) = (   0.1022727   0.0000000   0.0000000), wk =   0.0039841
        k(   11) = (   0.1136364   0.0000000   0.0000000), wk =   0.0039841
        k(   12) = (   0.1250000   0.0000000   0.0000000), wk =   0.0039841
        k(   13) = (   0.1363636   0.0000000   0.0000000), wk =   0.0039841
        k(   14) = (   0.1477273   0.0000000   0.0000000), wk =   0.0039841
        k(   15) = (   0.1590909   0.0000000   0.0000000), wk =   0.0039841
        k(   16) = (   0.1704545   0.0000000   0.0000000), wk =   0.0039841
        k(   17) = (   0.1818182   0.0000000   0.0000000), wk =   0.0039841
        k(   18) = (   0.1931818   0.0000000   0.0000000), wk =   0.0039841
        k(   19) = (   0.2045455   0.0000000   0.0000000), wk =   0.0039841
        k(   20) = (   0.2159091   0.0000000   0.0000000), wk =   0.0039841
        k(   21) = (   0.2272727  -0.0000000   0.0000000), wk =   0.0039841
        k(   22) = (   0.2386364   0.0000000   0.0000000), wk =   0.0039841
        k(   23) = (   0.2500000   0.0000000   0.0000000), wk =   0.0039841
        k(   24) = (   0.2613636   0.0000000   0.0000000), wk =   0.0039841
        k(   25) = (   0.2727273   0.0000000   0.0000000), wk =   0.0039841
        k(   26) = (   0.2840909   0.0000000   0.0000000), wk =   0.0039841
        k(   27) = (   0.2954545   0.0000000   0.0000000), wk =   0.0039841
        k(   28) = (   0.3068182   0.0000000   0.0000000), wk =   0.0039841
        k(   29) = (   0.3181818   0.0000000   0.0000000), wk =   0.0039841
        k(   30) = (   0.3295455   0.0000000   0.0000000), wk =   0.0039841
        k(   31) = (   0.3409091   0.0000000   0.0000000), wk =   0.0039841
        k(   32) = (   0.3522727   0.0000000   0.0000000), wk =   0.0039841
        k(   33) = (   0.3636364   0.0000000   0.0000000), wk =   0.0039841
        k(   34) = (   0.3750000   0.0000000   0.0000000), wk =   0.0039841
        k(   35) = (   0.3863636   0.0000000   0.0000000), wk =   0.0039841
        k(   36) = (   0.3977273   0.0000000   0.0000000), wk =   0.0039841
        k(   37) = (   0.4090909   0.0000000   0.0000000), wk =   0.0039841
        k(   38) = (   0.4204545   0.0000000   0.0000000), wk =   0.0039841
        k(   39) = (   0.4318182   0.0000000   0.0000000), wk =   0.0039841
        k(   40) = (   0.4431818   0.0000000   0.0000000), wk =   0.0039841
        k(   41) = (   0.4545455   0.0000000   0.0000000), wk =   0.0039841
        k(   42) = (   0.4659091  -0.0000000   0.0000000), wk =   0.0039841
        k(   43) = (   0.4772727   0.0000000   0.0000000), wk =   0.0039841
        k(   44) = (   0.4886364   0.0000000   0.0000000), wk =   0.0039841
        k(   45) = (   0.5000000   0.0000000   0.0000000), wk =   0.0039841
        k(   46) = (   0.4930556   0.0138889   0.0000000), wk =   0.0039841
        k(   47) = (   0.4861111   0.0277778   0.0000000), wk =   0.0039841
        k(   48) = (   0.4791667   0.0416667   0.0000000), wk =   0.0039841
        k(   49) = (   0.4722222   0.0555556   0.0000000), wk =   0.0039841
        k(   50) = (   0.4652778   0.0694444   0.0000000), wk =   0.0039841
        k(   51) = (   0.4583333   0.0833333   0.0000000), wk =   0.0039841
        k(   52) = (   0.4513889   0.0972222   0.0000000), wk =   0.0039841
        k(   53) = (   0.4444444   0.1111111   0.0000000), wk =   0.0039841
        k(   54) = (   0.4375000   0.1250000   0.0000000), wk =   0.0039841
        k(   55) = (   0.4305556   0.1388889   0.0000000), wk =   0.0039841
        k(   56) = (   0.4236111   0.1527778   0.0000000), wk =   0.0039841
        k(   57) = (   0.4166667   0.1666667   0.0000000), wk =   0.0039841
        k(   58) = (   0.4097222   0.1805556   0.0000000), wk =   0.0039841
        k(   59) = (   0.4027778   0.1944444   0.0000000), wk =   0.0039841
        k(   60) = (   0.3958333   0.2083333   0.0000000), wk =   0.0039841
        k(   61) = (   0.3888889   0.2222222   0.0000000), wk =   0.0039841
        k(   62) = (   0.3819444   0.2361111   0.0000000), wk =   0.0039841
        k(   63) = (   0.3750000   0.2500000   0.0000000), wk =   0.0039841
        k(   64) = (   0.3680556   0.2638889   0.0000000), wk =   0.0039841
        k(   65) = (   0.3611111   0.2777778   0.0000000), wk =   0.0039841
        k(   66) = (   0.3541667   0.2916667   0.0000000), wk =   0.0039841
        k(   67) = (   0.3472222   0.3055556   0.0000000), wk =   0.0039841
        k(   68) = (   0.3402778   0.3194444   0.0000000), wk =   0.0039841
        k(   69) = (   0.3333333   0.3333333   0.0000000), wk =   0.0039841
        k(   70) = (   0.3266667   0.3266667   0.0000000), wk =   0.0039841
        k(   71) = (   0.3200000   0.3200000   0.0000000), wk =   0.0039841
        k(   72) = (   0.3133333   0.3133333   0.0000000), wk =   0.0039841
        k(   73) = (   0.3066667   0.3066667   0.0000000), wk =   0.0039841
        k(   74) = (   0.3000000   0.3000000   0.0000000), wk =   0.0039841
        k(   75) = (   0.2933333   0.2933333   0.0000000), wk =   0.0039841
        k(   76) = (   0.2866667   0.2866667   0.0000000), wk =   0.0039841
        k(   77) = (   0.2800000   0.2800000   0.0000000), wk =   0.0039841
        k(   78) = (   0.2733333   0.2733333   0.0000000), wk =   0.0039841
        k(   79) = (   0.2666667   0.2666667   0.0000000), wk =   0.0039841
        k(   80) = (   0.2600000   0.2600000   0.0000000), wk =   0.0039841
        k(   81) = (   0.2533333   0.2533333   0.0000000), wk =   0.0039841
        k(   82) = (   0.2466667   0.2466667   0.0000000), wk =   0.0039841
        k(   83) = (   0.2400000   0.2400000   0.0000000), wk =   0.0039841
        k(   84) = (   0.2333333   0.2333333   0.0000000), wk =   0.0039841
        k(   85) = (   0.2266667   0.2266667   0.0000000), wk =   0.0039841
        k(   86) = (   0.2200000   0.2200000   0.0000000), wk =   0.0039841
        k(   87) = (   0.2133333   0.2133333   0.0000000), wk =   0.0039841
        k(   88) = (   0.2066667   0.2066667   0.0000000), wk =   0.0039841
        k(   89) = (   0.2000000   0.2000000   0.0000000), wk =   0.0039841
        k(   90) = (   0.1933333   0.1933333   0.0000000), wk =   0.0039841
        k(   91) = (   0.1866667   0.1866667   0.0000000), wk =   0.0039841
        k(   92) = (   0.1800000   0.1800000   0.0000000), wk =   0.0039841
        k(   93) = (   0.1733333   0.1733333   0.0000000), wk =   0.0039841
        k(   94) = (   0.1666667   0.1666667   0.0000000), wk =   0.0039841
        k(   95) = (   0.1600000   0.1600000   0.0000000), wk =   0.0039841
        k(   96) = (   0.1533333   0.1533333   0.0000000), wk =   0.0039841
        k(   97) = (   0.1466667   0.1466667   0.0000000), wk =   0.0039841
        k(   98) = (   0.1400000   0.1400000   0.0000000), wk =   0.0039841
        k(   99) = (   0.1333333   0.1333333   0.0000000), wk =   0.0039841
        k(  100) = (   0.1266667   0.1266667   0.0000000), wk =   0.0039841
        k(  101) = (   0.1200000   0.1200000   0.0000000), wk =   0.0039841
        k(  102) = (   0.1133333   0.1133333   0.0000000), wk =   0.0039841
        k(  103) = (   0.1066667   0.1066667   0.0000000), wk =   0.0039841
        k(  104) = (   0.1000000   0.1000000   0.0000000), wk =   0.0039841
        k(  105) = (   0.0933333   0.0933333   0.0000000), wk =   0.0039841
        k(  106) = (   0.0866667   0.0866667   0.0000000), wk =   0.0039841
        k(  107) = (   0.0800000   0.0800000   0.0000000), wk =   0.0039841
        k(  108) = (   0.0733333   0.0733333   0.0000000), wk =   0.0039841
        k(  109) = (   0.0666667   0.0666667   0.0000000), wk =   0.0039841
        k(  110) = (   0.0600000   0.0600000   0.0000000), wk =   0.0039841
        k(  111) = (   0.0533333   0.0533333   0.0000000), wk =   0.0039841
        k(  112) = (   0.0466667   0.0466667   0.0000000), wk =   0.0039841
        k(  113) = (   0.0400000   0.0400000   0.0000000), wk =   0.0039841
        k(  114) = (   0.0333333   0.0333333   0.0000000), wk =   0.0039841
        k(  115) = (   0.0266667   0.0266667   0.0000000), wk =   0.0039841
        k(  116) = (   0.0200000   0.0200000   0.0000000), wk =   0.0039841
        k(  117) = (   0.0133333   0.0133333   0.0000000), wk =   0.0039841
        k(  118) = (   0.0066667   0.0066667   0.0000000), wk =   0.0039841
        k(  119) = (   0.0000000   0.0000000   0.0000000), wk =   0.0039841
        k(  120) = (   0.0000000   0.0000000   0.1250000), wk =   0.0039841
        k(  121) = (   0.0000000   0.0000000   0.2500000), wk =   0.0039841
        k(  122) = (   0.0000000   0.0000000   0.3750000), wk =   0.0039841
        k(  123) = (   0.0000000   0.0000000   0.5000000), wk =   0.0039841
        k(  124) = (   0.0113636   0.0000000   0.5000000), wk =   0.0039841
        k(  125) = (   0.0227273   0.0000000   0.5000000), wk =   0.0039841
        k(  126) = (   0.0340909   0.0000000   0.5000000), wk =   0.0039841
        k(  127) = (   0.0454545   0.0000000   0.5000000), wk =   0.0039841
        k(  128) = (   0.0568182   0.0000000   0.5000000), wk =   0.0039841
        k(  129) = (   0.0681818   0.0000000   0.5000000), wk =   0.0039841
        k(  130) = (   0.0795455   0.0000000   0.5000000), wk =   0.0039841
        k(  131) = (   0.0909091   0.0000000   0.5000000), wk =   0.0039841
        k(  132) = (   0.1022727   0.0000000   0.5000000), wk =   0.0039841
        k(  133) = (   0.1136364   0.0000000   0.5000000), wk =   0.0039841
        k(  134) = (   0.1250000   0.0000000   0.5000000), wk =   0.0039841
        k(  135) = (   0.1363636   0.0000000   0.5000000), wk =   0.0039841
        k(  136) = (   0.1477273   0.0000000   0.5000000), wk =   0.0039841
        k(  137) = (   0.1590909   0.0000000   0.5000000), wk =   0.0039841
        k(  138) = (   0.1704545   0.0000000   0.5000000), wk =   0.0039841
        k(  139) = (   0.1818182   0.0000000   0.5000000), wk =   0.0039841
        k(  140) = (   0.1931818   0.0000000   0.5000000), wk =   0.0039841
        k(  141) = (   0.2045455   0.0000000   0.5000000), wk =   0.0039841
        k(  142) = (   0.2159091   0.0000000   0.5000000), wk =   0.0039841
        k(  143) = (   0.2272727  -0.0000000   0.5000000), wk =   0.0039841
        k(  144) = (   0.2386364   0.0000000   0.5000000), wk =   0.0039841
        k(  145) = (   0.2500000   0.0000000   0.5000000), wk =   0.0039841
        k(  146) = (   0.2613636   0.0000000   0.5000000), wk =   0.0039841
        k(  147) = (   0.2727273   0.0000000   0.5000000), wk =   0.0039841
        k(  148) = (   0.2840909   0.0000000   0.5000000), wk =   0.0039841
        k(  149) = (   0.2954545   0.0000000   0.5000000), wk =   0.0039841
        k(  150) = (   0.3068182   0.0000000   0.5000000), wk =   0.0039841
        k(  151) = (   0.3181818   0.0000000   0.5000000), wk =   0.0039841
        k(  152) = (   0.3295455   0.0000000   0.5000000), wk =   0.0039841
        k(  153) = (   0.3409091   0.0000000   0.5000000), wk =   0.0039841
        k(  154) = (   0.3522727   0.0000000   0.5000000), wk =   0.0039841
        k(  155) = (   0.3636364   0.0000000   0.5000000), wk =   0.0039841
        k(  156) = (   0.3750000   0.0000000   0.5000000), wk =   0.0039841
        k(  157) = (   0.3863636   0.0000000   0.5000000), wk =   0.0039841
        k(  158) = (   0.3977273   0.0000000   0.5000000), wk =   0.0039841
        k(  159) = (   0.4090909   0.0000000   0.5000000), wk =   0.0039841
        k(  160) = (   0.4204545   0.0000000   0.5000000), wk =   0.0039841
        k(  161) = (   0.4318182   0.0000000   0.5000000), wk =   0.0039841
        k(  162) = (   0.4431818   0.0000000   0.5000000), wk =   0.0039841
        k(  163) = (   0.4545455   0.0000000   0.5000000), wk =   0.0039841
        k(  164) = (   0.4659091  -0.0000000   0.5000000), wk =   0.0039841
        k(  165) = (   0.4772727   0.0000000   0.5000000), wk =   0.0039841
        k(  166) = (   0.4886364   0.0000000   0.5000000), wk =   0.0039841
        k(  167) = (   0.5000000   0.0000000   0.5000000), wk =   0.0039841
        k(  168) = (   0.4930556   0.0138889   0.5000000), wk =   0.0039841
        k(  169) = (   0.4861111   0.0277778   0.5000000), wk =   0.0039841
        k(  170) = (   0.4791667   0.0416667   0.5000000), wk =   0.0039841
        k(  171) = (   0.4722222   0.0555556   0.5000000), wk =   0.0039841
        k(  172) = (   0.4652778   0.0694444   0.5000000), wk =   0.0039841
        k(  173) = (   0.4583333   0.0833333   0.5000000), wk =   0.0039841
        k(  174) = (   0.4513889   0.0972222   0.5000000), wk =   0.0039841
        k(  175) = (   0.4444444   0.1111111   0.5000000), wk =   0.0039841
        k(  176) = (   0.4375000   0.1250000   0.5000000), wk =   0.0039841
        k(  177) = (   0.4305556   0.1388889   0.5000000), wk =   0.0039841
        k(  178) = (   0.4236111   0.1527778   0.5000000), wk =   0.0039841
        k(  179) = (   0.4166667   0.1666667   0.5000000), wk =   0.0039841
        k(  180) = (   0.4097222   0.1805556   0.5000000), wk =   0.0039841
        k(  181) = (   0.4027778   0.1944444   0.5000000), wk =   0.0039841
        k(  182) = (   0.3958333   0.2083333   0.5000000), wk =   0.0039841
        k(  183) = (   0.3888889   0.2222222   0.5000000), wk =   0.0039841
        k(  184) = (   0.3819444   0.2361111   0.5000000), wk =   0.0039841
        k(  185) = (   0.3750000   0.2500000   0.5000000), wk =   0.0039841
        k(  186) = (   0.3680556   0.2638889   0.5000000), wk =   0.0039841
        k(  187) = (   0.3611111   0.2777778   0.5000000), wk =   0.0039841
        k(  188) = (   0.3541667   0.2916667   0.5000000), wk =   0.0039841
        k(  189) = (   0.3472222   0.3055556   0.5000000), wk =   0.0039841
        k(  190) = (   0.3402778   0.3194444   0.5000000), wk =   0.0039841
        k(  191) = (   0.3333333   0.3333333   0.5000000), wk =   0.0039841
        k(  192) = (   0.3266667   0.3266667   0.5000000), wk =   0.0039841
        k(  193) = (   0.3200000   0.3200000   0.5000000), wk =   0.0039841
        k(  194) = (   0.3133333   0.3133333   0.5000000), wk =   0.0039841
        k(  195) = (   0.3066667   0.3066667   0.5000000), wk =   0.0039841
        k(  196) = (   0.3000000   0.3000000   0.5000000), wk =   0.0039841
        k(  197) = (   0.2933333   0.2933333   0.5000000), wk =   0.0039841
        k(  198) = (   0.2866667   0.2866667   0.5000000), wk =   0.0039841
        k(  199) = (   0.2800000   0.2800000   0.5000000), wk =   0.0039841
        k(  200) = (   0.2733333   0.2733333   0.5000000), wk =   0.0039841
        k(  201) = (   0.2666667   0.2666667   0.5000000), wk =   0.0039841
        k(  202) = (   0.2600000   0.2600000   0.5000000), wk =   0.0039841
        k(  203) = (   0.2533333   0.2533333   0.5000000), wk =   0.0039841
        k(  204) = (   0.2466667   0.2466667   0.5000000), wk =   0.0039841
        k(  205) = (   0.2400000   0.2400000   0.5000000), wk =   0.0039841
        k(  206) = (   0.2333333   0.2333333   0.5000000), wk =   0.0039841
        k(  207) = (   0.2266667   0.2266667   0.5000000), wk =   0.0039841
        k(  208) = (   0.2200000   0.2200000   0.5000000), wk =   0.0039841
        k(  209) = (   0.2133333   0.2133333   0.5000000), wk =   0.0039841
        k(  210) = (   0.2066667   0.2066667   0.5000000), wk =   0.0039841
        k(  211) = (   0.2000000   0.2000000   0.5000000), wk =   0.0039841
        k(  212) = (   0.1933333   0.1933333   0.5000000), wk =   0.0039841
        k(  213) = (   0.1866667   0.1866667   0.5000000), wk =   0.0039841
        k(  214) = (   0.1800000   0.1800000   0.5000000), wk =   0.0039841
        k(  215) = (   0.1733333   0.1733333   0.5000000), wk =   0.0039841
        k(  216) = (   0.1666667   0.1666667   0.5000000), wk =   0.0039841
        k(  217) = (   0.1600000   0.1600000   0.5000000), wk =   0.0039841
        k(  218) = (   0.1533333   0.1533333   0.5000000), wk =   0.0039841
        k(  219) = (   0.1466667   0.1466667   0.5000000), wk =   0.0039841
        k(  220) = (   0.1400000   0.1400000   0.5000000), wk =   0.0039841
        k(  221) = (   0.1333333   0.1333333   0.5000000), wk =   0.0039841
        k(  222) = (   0.1266667   0.1266667   0.5000000), wk =   0.0039841
        k(  223) = (   0.1200000   0.1200000   0.5000000), wk =   0.0039841
        k(  224) = (   0.1133333   0.1133333   0.5000000), wk =   0.0039841
        k(  225) = (   0.1066667   0.1066667   0.5000000), wk =   0.0039841
        k(  226) = (   0.1000000   0.1000000   0.5000000), wk =   0.0039841
        k(  227) = (   0.0933333   0.0933333   0.5000000), wk =   0.0039841
        k(  228) = (   0.0866667   0.0866667   0.5000000), wk =   0.0039841
        k(  229) = (   0.0800000   0.0800000   0.5000000), wk =   0.0039841
        k(  230) = (   0.0733333   0.0733333   0.5000000), wk =   0.0039841
        k(  231) = (   0.0666667   0.0666667   0.5000000), wk =   0.0039841
        k(  232) = (   0.0600000   0.0600000   0.5000000), wk =   0.0039841
        k(  233) = (   0.0533333   0.0533333   0.5000000), wk =   0.0039841
        k(  234) = (   0.0466667   0.0466667   0.5000000), wk =   0.0039841
        k(  235) = (   0.0400000   0.0400000   0.5000000), wk =   0.0039841
        k(  236) = (   0.0333333   0.0333333   0.5000000), wk =   0.0039841
        k(  237) = (   0.0266667   0.0266667   0.5000000), wk =   0.0039841
        k(  238) = (   0.0200000   0.0200000   0.5000000), wk =   0.0039841
        k(  239) = (   0.0133333   0.0133333   0.5000000), wk =   0.0039841
        k(  240) = (   0.0066667   0.0066667   0.5000000), wk =   0.0039841
        k(  241) = (   0.0000000   0.0000000   0.5000000), wk =   0.0039841
        k(  242) = (   0.5000000   0.0000000   0.5000000), wk =   0.0039841
        k(  243) = (   0.5000000   0.0000000   0.3750000), wk =   0.0039841
        k(  244) = (   0.5000000   0.0000000   0.2500000), wk =   0.0039841
        k(  245) = (   0.5000000   0.0000000   0.1250000), wk =   0.0039841
        k(  246) = (   0.5000000   0.0000000   0.0000000), wk =   0.0039841
        k(  247) = (   0.3333333   0.3333333   0.5000000), wk =   0.0039841
        k(  248) = (   0.3333333   0.3333333   0.3750000), wk =   0.0039841
        k(  249) = (   0.3333333   0.3333333   0.2500000), wk =   0.0039841
        k(  250) = (   0.3333333   0.3333333   0.1250000), wk =   0.0039841
        k(  251) = (   0.3333333   0.3333333   0.0000000), wk =   0.0039841
        k(  252) = (   0.0000000   0.0000000   0.0000000), wk =   0.0039841
        k(  253) = (  -0.0113636   0.0000000   0.0000000), wk =   0.0039841
        k(  254) = (  -0.0227273   0.0000000   0.0000000), wk =   0.0039841
        k(  255) = (  -0.0340909  -0.0000000   0.0000000), wk =   0.0039841
        k(  256) = (  -0.0454545   0.0000000   0.0000000), wk =   0.0039841
        k(  257) = (  -0.0568182   0.0000000   0.0000000), wk =   0.0039841
        k(  258) = (  -0.0681818  -0.0000000   0.0000000), wk =   0.0039841
        k(  259) = (  -0.0795455   0.0000000   0.0000000), wk =   0.0039841
        k(  260) = (  -0.0909091   0.0000000   0.0000000), wk =   0.0039841
        k(  261) = (  -0.1022727  -0.0000000   0.0000000), wk =   0.0039841
        k(  262) = (  -0.1136364   0.0000000   0.0000000), wk =   0.0039841
        k(  263) = (  -0.1250000   0.0000000   0.0000000), wk =   0.0039841
        k(  264) = (  -0.1363636  -0.0000000   0.0000000), wk =   0.0039841
        k(  265) = (  -0.1477273   0.0000000   0.0000000), wk =   0.0039841
        k(  266) = (  -0.1590909   0.0000000   0.0000000), wk =   0.0039841
        k(  267) = (  -0.1704545   0.0000000   0.0000000), wk =   0.0039841
        k(  268) = (  -0.1818182   0.0000000   0.0000000), wk =   0.0039841
        k(  269) = (  -0.1931818   0.0000000   0.0000000), wk =   0.0039841
        k(  270) = (  -0.2045455   0.0000000   0.0000000), wk =   0.0039841
        k(  271) = (  -0.2159091  -0.0000000   0.0000000), wk =   0.0039841
        k(  272) = (  -0.2272727   0.0000000   0.0000000), wk =   0.0039841
        k(  273) = (  -0.2386364  -0.0000000   0.0000000), wk =   0.0039841
        k(  274) = (  -0.2500000   0.0000000   0.0000000), wk =   0.0039841
        k(  275) = (  -0.2613636   0.0000000   0.0000000), wk =   0.0039841
        k(  276) = (  -0.2727273   0.0000000   0.0000000), wk =   0.0039841
        k(  277) = (  -0.2840909  -0.0000000   0.0000000), wk =   0.0039841
        k(  278) = (  -0.2954545  -0.0000000   0.0000000), wk =   0.0039841
        k(  279) = (  -0.3068182   0.0000000   0.0000000), wk =   0.0039841
        k(  280) = (  -0.3181818   0.0000000   0.0000000), wk =   0.0039841
        k(  281) = (  -0.3295455   0.0000000   0.0000000), wk =   0.0039841
        k(  282) = (  -0.3409091   0.0000000   0.0000000), wk =   0.0039841
        k(  283) = (  -0.3522727   0.0000000   0.0000000), wk =   0.0039841
        k(  284) = (  -0.3636364   0.0000000   0.0000000), wk =   0.0039841
        k(  285) = (  -0.3750000   0.0000000   0.0000000), wk =   0.0039841
        k(  286) = (  -0.3863636   0.0000000   0.0000000), wk =   0.0039841
        k(  287) = (  -0.3977273  -0.0000000   0.0000000), wk =   0.0039841
        k(  288) = (  -0.4090909   0.0000000   0.0000000), wk =   0.0039841
        k(  289) = (  -0.4204545   0.0000000   0.0000000), wk =   0.0039841
        k(  290) = (  -0.4318182  -0.0000000   0.0000000), wk =   0.0039841
        k(  291) = (  -0.4431818   0.0000000   0.0000000), wk =   0.0039841
        k(  292) = (  -0.4545455  -0.0000000   0.0000000), wk =   0.0039841
        k(  293) = (  -0.4659091   0.0000000   0.0000000), wk =   0.0039841
        k(  294) = (  -0.4772727   0.0000000   0.0000000), wk =   0.0039841
        k(  295) = (  -0.4886364   0.0000000   0.0000000), wk =   0.0039841
        k(  296) = (  -0.5000000   0.0000000   0.0000000), wk =   0.0039841
        k(  297) = (  -0.4930556  -0.0138889   0.0000000), wk =   0.0039841
        k(  298) = (  -0.4861111  -0.0277778   0.0000000), wk =   0.0039841
        k(  299) = (  -0.4791667  -0.0416667   0.0000000), wk =   0.0039841
        k(  300) = (  -0.4722222  -0.0555556   0.0000000), wk =   0.0039841
        k(  301) = (  -0.4652778  -0.0694444   0.0000000), wk =   0.0039841
        k(  302) = (  -0.4583333  -0.0833333   0.0000000), wk =   0.0039841
        k(  303) = (  -0.4513889  -0.0972222   0.0000000), wk =   0.0039841
        k(  304) = (  -0.4444444  -0.1111111   0.0000000), wk =   0.0039841
        k(  305) = (  -0.4375000  -0.1250000   0.0000000), wk =   0.0039841
        k(  306) = (  -0.4305556  -0.1388889   0.0000000), wk =   0.0039841
        k(  307) = (  -0.4236111  -0.1527778   0.0000000), wk =   0.0039841
        k(  308) = (  -0.4166667  -0.1666667   0.0000000), wk =   0.0039841
        k(  309) = (  -0.4097222  -0.1805556   0.0000000), wk =   0.0039841
        k(  310) = (  -0.4027778  -0.1944444   0.0000000), wk =   0.0039841
        k(  311) = (  -0.3958333  -0.2083333   0.0000000), wk =   0.0039841
        k(  312) = (  -0.3888889  -0.2222222   0.0000000), wk =   0.0039841
        k(  313) = (  -0.3819444  -0.2361111   0.0000000), wk =   0.0039841
        k(  314) = (  -0.3750000  -0.2500000   0.0000000), wk =   0.0039841
        k(  315) = (  -0.3680556  -0.2638889   0.0000000), wk =   0.0039841
        k(  316) = (  -0.3611111  -0.2777778   0.0000000), wk =   0.0039841
        k(  317) = (  -0.3541667  -0.2916667   0.0000000), wk =   0.0039841
        k(  318) = (  -0.3472222  -0.3055556   0.0000000), wk =   0.0039841
        k(  319) = (  -0.3402778  -0.3194444   0.0000000), wk =   0.0039841
        k(  320) = (  -0.3333333  -0.3333333   0.0000000), wk =   0.0039841
        k(  321) = (  -0.3266667  -0.3266667   0.0000000), wk =   0.0039841
        k(  322) = (  -0.3200000  -0.3200000   0.0000000), wk =   0.0039841
        k(  323) = (  -0.3133333  -0.3133333   0.0000000), wk =   0.0039841
        k(  324) = (  -0.3066667  -0.3066667   0.0000000), wk =   0.0039841
        k(  325) = (  -0.3000000  -0.3000000   0.0000000), wk =   0.0039841
        k(  326) = (  -0.2933333  -0.2933333   0.0000000), wk =   0.0039841
        k(  327) = (  -0.2866667  -0.2866667   0.0000000), wk =   0.0039841
        k(  328) = (  -0.2800000  -0.2800000   0.0000000), wk =   0.0039841
        k(  329) = (  -0.2733333  -0.2733333   0.0000000), wk =   0.0039841
        k(  330) = (  -0.2666667  -0.2666667   0.0000000), wk =   0.0039841
        k(  331) = (  -0.2600000  -0.2600000   0.0000000), wk =   0.0039841
        k(  332) = (  -0.2533333  -0.2533333   0.0000000), wk =   0.0039841
        k(  333) = (  -0.2466667  -0.2466667   0.0000000), wk =   0.0039841
        k(  334) = (  -0.2400000  -0.2400000   0.0000000), wk =   0.0039841
        k(  335) = (  -0.2333333  -0.2333333   0.0000000), wk =   0.0039841
        k(  336) = (  -0.2266667  -0.2266667   0.0000000), wk =   0.0039841
        k(  337) = (  -0.2200000  -0.2200000   0.0000000), wk =   0.0039841
        k(  338) = (  -0.2133333  -0.2133333   0.0000000), wk =   0.0039841
        k(  339) = (  -0.2066667  -0.2066667   0.0000000), wk =   0.0039841
        k(  340) = (  -0.2000000  -0.2000000   0.0000000), wk =   0.0039841
        k(  341) = (  -0.1933333  -0.1933333   0.0000000), wk =   0.0039841
        k(  342) = (  -0.1866667  -0.1866667   0.0000000), wk =   0.0039841
        k(  343) = (  -0.1800000  -0.1800000   0.0000000), wk =   0.0039841
        k(  344) = (  -0.1733333  -0.1733333   0.0000000), wk =   0.0039841
        k(  345) = (  -0.1666667  -0.1666667   0.0000000), wk =   0.0039841
        k(  346) = (  -0.1600000  -0.1600000   0.0000000), wk =   0.0039841
        k(  347) = (  -0.1533333  -0.1533333   0.0000000), wk =   0.0039841
        k(  348) = (  -0.1466667  -0.1466667   0.0000000), wk =   0.0039841
        k(  349) = (  -0.1400000  -0.1400000   0.0000000), wk =   0.0039841
        k(  350) = (  -0.1333333  -0.1333333   0.0000000), wk =   0.0039841
        k(  351) = (  -0.1266667  -0.1266667   0.0000000), wk =   0.0039841
        k(  352) = (  -0.1200000  -0.1200000   0.0000000), wk =   0.0039841
        k(  353) = (  -0.1133333  -0.1133333   0.0000000), wk =   0.0039841
        k(  354) = (  -0.1066667  -0.1066667   0.0000000), wk =   0.0039841
        k(  355) = (  -0.1000000  -0.1000000   0.0000000), wk =   0.0039841
        k(  356) = (  -0.0933333  -0.0933333   0.0000000), wk =   0.0039841
        k(  357) = (  -0.0866667  -0.0866667   0.0000000), wk =   0.0039841
        k(  358) = (  -0.0800000  -0.0800000   0.0000000), wk =   0.0039841
        k(  359) = (  -0.0733333  -0.0733333   0.0000000), wk =   0.0039841
        k(  360) = (  -0.0666667  -0.0666667   0.0000000), wk =   0.0039841
        k(  361) = (  -0.0600000  -0.0600000   0.0000000), wk =   0.0039841
        k(  362) = (  -0.0533333  -0.0533333   0.0000000), wk =   0.0039841
        k(  363) = (  -0.0466667  -0.0466667   0.0000000), wk =   0.0039841
        k(  364) = (  -0.0400000  -0.0400000   0.0000000), wk =   0.0039841
        k(  365) = (  -0.0333333  -0.0333333   0.0000000), wk =   0.0039841
        k(  366) = (  -0.0266667  -0.0266667   0.0000000), wk =   0.0039841
        k(  367) = (  -0.0200000  -0.0200000   0.0000000), wk =   0.0039841
        k(  368) = (  -0.0133333  -0.0133333   0.0000000), wk =   0.0039841
        k(  369) = (  -0.0066667  -0.0066667   0.0000000), wk =   0.0039841
        k(  370) = (   0.0000000   0.0000000   0.0000000), wk =   0.0039841
        k(  371) = (   0.0000000   0.0000000  -0.1250000), wk =   0.0039841
        k(  372) = (   0.0000000   0.0000000  -0.2500000), wk =   0.0039841
        k(  373) = (   0.0000000   0.0000000  -0.3750000), wk =   0.0039841
        k(  374) = (   0.0000000   0.0000000  -0.5000000), wk =   0.0039841
        k(  375) = (  -0.0113636   0.0000000  -0.5000000), wk =   0.0039841
        k(  376) = (  -0.0227273   0.0000000  -0.5000000), wk =   0.0039841
        k(  377) = (  -0.0340909  -0.0000000  -0.5000000), wk =   0.0039841
        k(  378) = (  -0.0454545   0.0000000  -0.5000000), wk =   0.0039841
        k(  379) = (  -0.0568182   0.0000000  -0.5000000), wk =   0.0039841
        k(  380) = (  -0.0681818  -0.0000000  -0.5000000), wk =   0.0039841
        k(  381) = (  -0.0795455   0.0000000  -0.5000000), wk =   0.0039841
        k(  382) = (  -0.0909091   0.0000000  -0.5000000), wk =   0.0039841
        k(  383) = (  -0.1022727  -0.0000000  -0.5000000), wk =   0.0039841
        k(  384) = (  -0.1136364   0.0000000  -0.5000000), wk =   0.0039841
        k(  385) = (  -0.1250000   0.0000000  -0.5000000), wk =   0.0039841
        k(  386) = (  -0.1363636  -0.0000000  -0.5000000), wk =   0.0039841
        k(  387) = (  -0.1477273   0.0000000  -0.5000000), wk =   0.0039841
        k(  388) = (  -0.1590909   0.0000000  -0.5000000), wk =   0.0039841
        k(  389) = (  -0.1704545   0.0000000  -0.5000000), wk =   0.0039841
        k(  390) = (  -0.1818182   0.0000000  -0.5000000), wk =   0.0039841
        k(  391) = (  -0.1931818   0.0000000  -0.5000000), wk =   0.0039841
        k(  392) = (  -0.2045455   0.0000000  -0.5000000), wk =   0.0039841
        k(  393) = (  -0.2159091  -0.0000000  -0.5000000), wk =   0.0039841
        k(  394) = (  -0.2272727   0.0000000  -0.5000000), wk =   0.0039841
        k(  395) = (  -0.2386364  -0.0000000  -0.5000000), wk =   0.0039841
        k(  396) = (  -0.2500000   0.0000000  -0.5000000), wk =   0.0039841
        k(  397) = (  -0.2613636   0.0000000  -0.5000000), wk =   0.0039841
        k(  398) = (  -0.2727273   0.0000000  -0.5000000), wk =   0.0039841
        k(  399) = (  -0.2840909  -0.0000000  -0.5000000), wk =   0.0039841
        k(  400) = (  -0.2954545  -0.0000000  -0.5000000), wk =   0.0039841
        k(  401) = (  -0.3068182   0.0000000  -0.5000000), wk =   0.0039841
        k(  402) = (  -0.3181818   0.0000000  -0.5000000), wk =   0.0039841
        k(  403) = (  -0.3295455   0.0000000  -0.5000000), wk =   0.0039841
        k(  404) = (  -0.3409091   0.0000000  -0.5000000), wk =   0.0039841
        k(  405) = (  -0.3522727   0.0000000  -0.5000000), wk =   0.0039841
        k(  406) = (  -0.3636364   0.0000000  -0.5000000), wk =   0.0039841
        k(  407) = (  -0.3750000   0.0000000  -0.5000000), wk =   0.0039841
        k(  408) = (  -0.3863636   0.0000000  -0.5000000), wk =   0.0039841
        k(  409) = (  -0.3977273  -0.0000000  -0.5000000), wk =   0.0039841
        k(  410) = (  -0.4090909   0.0000000  -0.5000000), wk =   0.0039841
        k(  411) = (  -0.4204545   0.0000000  -0.5000000), wk =   0.0039841
        k(  412) = (  -0.4318182  -0.0000000  -0.5000000), wk =   0.0039841
        k(  413) = (  -0.4431818   0.0000000  -0.5000000), wk =   0.0039841
        k(  414) = (  -0.4545455  -0.0000000  -0.5000000), wk =   0.0039841
        k(  415) = (  -0.4659091   0.0000000  -0.5000000), wk =   0.0039841
        k(  416) = (  -0.4772727   0.0000000  -0.5000000), wk =   0.0039841
        k(  417) = (  -0.4886364   0.0000000  -0.5000000), wk =   0.0039841
        k(  418) = (  -0.5000000   0.0000000  -0.5000000), wk =   0.0039841
        k(  419) = (  -0.4930556  -0.0138889  -0.5000000), wk =   0.0039841
        k(  420) = (  -0.4861111  -0.0277778  -0.5000000), wk =   0.0039841
        k(  421) = (  -0.4791667  -0.0416667  -0.5000000), wk =   0.0039841
        k(  422) = (  -0.4722222  -0.0555556  -0.5000000), wk =   0.0039841
        k(  423) = (  -0.4652778  -0.0694444  -0.5000000), wk =   0.0039841
        k(  424) = (  -0.4583333  -0.0833333  -0.5000000), wk =   0.0039841
        k(  425) = (  -0.4513889  -0.0972222  -0.5000000), wk =   0.0039841
        k(  426) = (  -0.4444444  -0.1111111  -0.5000000), wk =   0.0039841
        k(  427) = (  -0.4375000  -0.1250000  -0.5000000), wk =   0.0039841
        k(  428) = (  -0.4305556  -0.1388889  -0.5000000), wk =   0.0039841
        k(  429) = (  -0.4236111  -0.1527778  -0.5000000), wk =   0.0039841
        k(  430) = (  -0.4166667  -0.1666667  -0.5000000), wk =   0.0039841
        k(  431) = (  -0.4097222  -0.1805556  -0.5000000), wk =   0.0039841
        k(  432) = (  -0.4027778  -0.1944444  -0.5000000), wk =   0.0039841
        k(  433) = (  -0.3958333  -0.2083333  -0.5000000), wk =   0.0039841
        k(  434) = (  -0.3888889  -0.2222222  -0.5000000), wk =   0.0039841
        k(  435) = (  -0.3819444  -0.2361111  -0.5000000), wk =   0.0039841
        k(  436) = (  -0.3750000  -0.2500000  -0.5000000), wk =   0.0039841
        k(  437) = (  -0.3680556  -0.2638889  -0.5000000), wk =   0.0039841
        k(  438) = (  -0.3611111  -0.2777778  -0.5000000), wk =   0.0039841
        k(  439) = (  -0.3541667  -0.2916667  -0.5000000), wk =   0.0039841
        k(  440) = (  -0.3472222  -0.3055556  -0.5000000), wk =   0.0039841
        k(  441) = (  -0.3402778  -0.3194444  -0.5000000), wk =   0.0039841
        k(  442) = (  -0.3333333  -0.3333333  -0.5000000), wk =   0.0039841
        k(  443) = (  -0.3266667  -0.3266667  -0.5000000), wk =   0.0039841
        k(  444) = (  -0.3200000  -0.3200000  -0.5000000), wk =   0.0039841
        k(  445) = (  -0.3133333  -0.3133333  -0.5000000), wk =   0.0039841
        k(  446) = (  -0.3066667  -0.3066667  -0.5000000), wk =   0.0039841
[...]
     2.7478   2.9673   3.6230   4.9114   7.1516   7.6625   8.3080   9.0539
     9.5408   9.9262  10.8721  11.3529  11.5635  11.9152  12.0026  12.3526
    12.6804  12.8764  13.7261  14.0570  14.7695  15.0497

          k =-0.1600-0.2771-0.0700 ( 16892 PWs)   bands (ev):

   -59.1794 -35.2788 -35.2457 -35.1881 -35.1741 -35.1422 -34.6915 -34.6642
   -34.5085 -34.5007 -34.4603 -33.4163 -33.2033 -33.0958 -13.4733 -12.2506
    -2.6663  -1.9075  -0.4077  -0.1069   0.2894   0.5196   1.0828   2.2440
     2.9365   2.9563   3.6491   4.8676   7.0370   7.5447   8.1918   9.0875
     9.4475   9.9424  10.8493  11.4213  11.6692  11.8208  11.9869  12.3711
    12.6355  13.1103  13.6917  14.0952  14.9455  14.9809

          k =-0.1533-0.2656-0.0700 ( 16898 PWs)   bands (ev):

   -59.1805 -35.2790 -35.2473 -35.1869 -35.1734 -35.1434 -34.6919 -34.6657
   -34.5079 -34.5004 -34.4616 -33.4195 -33.1946 -33.0917 -13.5575 -12.3394
    -2.7089  -1.7753  -0.3089  -0.1983   0.5133   0.5322   1.1135   2.1861
     2.9125   3.1634   3.6709   4.8450   6.9269   7.4302   8.0790   9.0687
     9.3580  10.0088  10.7980  11.4705  11.6710  11.7556  12.0758  12.4156
    12.6040  13.3492  13.6321  14.1752  14.8420  15.1021

          k =-0.1467-0.2540-0.0700 ( 16890 PWs)   bands (ev):

   -59.1816 -35.2790 -35.2489 -35.1857 -35.1728 -35.1445 -34.6922 -34.6673
   -34.5072 -34.5001 -34.4628 -33.4227 -33.1856 -33.0878 -13.6398 -12.4260
    -2.7668  -1.6281  -0.2975  -0.2035   0.5064   0.7823   1.1473   2.1253
     2.8949   3.3695   3.6866   4.8448   6.8214   7.3194   7.9703   9.0120
     9.2714  10.1088  10.7387  11.4811  11.6067  11.7219  12.1982  12.4955
    12.6155  13.5502  13.5992  14.2768  14.7382  15.0531

          k =-0.1400-0.2425-0.0700 ( 16894 PWs)   bands (ev):

   -59.1826 -35.2791 -35.2506 -35.1844 -35.1722 -35.1456 -34.6925 -34.6690
   -34.5065 -34.4998 -34.4641 -33.4258 -33.1764 -33.0840 -13.7199 -12.5101
    -2.8331  -1.4733  -0.3850  -0.1102   0.4985   1.0359   1.1862   2.0638
     2.8831   3.5701   3.7003   4.8663   6.7203   7.2124   7.8661   8.9346
     9.1869  10.2204  10.6809  11.4623  11.5378  11.7002  12.2513  12.6099
    12.7208  13.4856  13.8211  14.3871  14.6420  14.9997

          k =-0.1333-0.2309-0.0700 ( 16914 PWs)   bands (ev):

   -59.1837 -35.2790 -35.2523 -35.1831 -35.1717 -35.1467 -34.6927 -34.6706
   -34.5058 -34.4995 -34.4653 -33.4290 -33.1672 -33.0804 -13.7975 -12.5917
    -2.9038  -1.3153  -0.4722  -0.0179   0.4896   1.2020   1.3187   2.0043
     2.8749   3.6875   3.7926   4.9071   6.6238   7.1095   7.7665   8.8479
     9.1043  10.3238  10.6295  11.4340  11.4789  11.6852  12.2309  12.7491
    12.9085  13.4145  14.0274  14.4818  14.5807  14.9547

          k =-0.1267-0.2194-0.0700 ( 16922 PWs)   bands (ev):

   -59.1847 -35.2790 -35.2541 -35.1819 -35.1711 -35.1479 -34.6929 -34.6723
   -34.5051 -34.4992 -34.4666 -33.4321 -33.1579 -33.0770 -13.8724 -12.6703
    -2.9767  -1.1570  -0.5568   0.0710   0.4801   1.2407   1.5818   1.9500
     2.8671   3.7043   3.9856   4.9637   6.5318   7.0107   7.6716   8.7580
     9.0242  10.4017  10.5885  11.4024  11.4382  11.6842  12.1789  12.8994
    13.1317  13.3497  14.1728  14.4707  14.6670  14.9245

          k =-0.1200-0.2078-0.0700 ( 16910 PWs)   bands (ev):

   -59.1858 -35.2789 -35.2559 -35.1806 -35.1706 -35.1490 -34.6930 -34.6740
   -34.5043 -34.4989 -34.4678 -33.4351 -33.1486 -33.0737 -13.9445 -12.7459
    -3.0502  -1.0003  -0.6383   0.1545   0.4716   1.2685   1.8464   1.9133
     2.8560   3.7252   4.1803   5.0323   6.4444   6.9162   7.5814   8.6681
     8.9470  10.4415  10.5619  11.3675  11.4135  11.7136  12.1140  13.0387
    13.3010  13.3728  14.2036  14.4756  14.7908  14.9418

          k =-0.1133-0.1963-0.0700 ( 16918 PWs)   bands (ev):

   -59.1868 -35.2788 -35.2576 -35.1793 -35.1701 -35.1500 -34.6932 -34.6757
   -34.5036 -34.4987 -34.4690 -33.4381 -33.1394 -33.0707 -14.0136 -12.8182
    -3.1232  -0.8467  -0.7165   0.2290   0.4675   1.2874   1.8626   2.1415
     2.8384   3.7608   4.3709   5.1094   6.3616   6.8261   7.4961   8.5800
     8.8731  10.4457  10.5464  11.3373  11.3885  11.7855  12.0428  13.1027
    13.3354  13.6109  14.1550  14.5020  14.8186  15.0943

          k =-0.1067-0.1848-0.0700 ( 16910 PWs)   bands (ev):

   -59.1878 -35.2786 -35.2594 -35.1780 -35.1696 -35.1511 -34.6933 -34.6774
   -34.5030 -34.4984 -34.4702 -33.4411 -33.1303 -33.0678 -14.0794 -12.8870
    -3.1948  -0.7912  -0.6974   0.2866   0.4754   1.2958   1.8415   2.4249
     2.8121   3.8159   4.5557   5.1918   6.2834   6.7404   7.4155   8.4948
     8.8029  10.4321  10.5315  11.3093  11.3636  11.8932  11.9703  13.0740
    13.4521  13.8390  14.0944  14.5186  14.7996  15.3045

          k =-0.1000-0.1732-0.0700 ( 16898 PWs)   bands (ev):

   -59.1887 -35.2785 -35.2611 -35.1767 -35.1692 -35.1521 -34.6934 -34.6790
   -34.5023 -34.4982 -34.4713 -33.4439 -33.1214 -33.0651 -14.1419 -12.9524
    -3.2646  -0.8621  -0.5532   0.3170   0.5052   1.2934   1.8336   2.7116
     2.7774   3.8927   4.7336   5.2768   6.2100   6.6594   7.3397   8.4132
     8.7367  10.4095  10.5178  11.2718  11.3541  11.8878  12.0335  13.0213
    13.5694  13.9475  14.1377  14.5419  14.7689  15.5134

          k =-0.0933-0.1617-0.0700 ( 16898 PWs)   bands (ev):

   -59.1896 -35.2783 -35.2628 -35.1755 -35.1687 -35.1530 -34.6934 -34.6806
   -34.5016 -34.4980 -34.4723 -33.4466 -33.1128 -33.0625 -14.2010 -13.0140
    -3.3318  -0.9290  -0.4148   0.3223   0.5540   1.2828   1.8377   2.7321
     3.0027   3.9915   4.9034   5.3623   6.1413   6.5830   7.2687   8.3356
     8.6744  10.3766  10.5148  11.2217  11.3652  11.8124  12.1764  12.9669
    13.6435  13.8952  14.3063  14.6116  14.7415  15.6793

          k =-0.0867-0.1501-0.0700 ( 16912 PWs)   bands (ev):

   -59.1905 -35.2781 -35.2645 -35.1743 -35.1683 -35.1540 -34.6934 -34.6822
   -34.5010 -34.4978 -34.4734 -33.4492 -33.1044 -33.0602 -14.2564 -13.0718
    -3.3961  -0.9919  -0.2829   0.3147   0.6088   1.2680   1.8506   2.6810
     3.2935   4.1110   5.0639   5.4463   6.0776   6.5113   7.2026   8.2625
     8.6161  10.3339  10.5271  11.1625  11.3938  11.7397  12.3146  12.9195
    13.6471  13.8324  14.4233  14.7015  14.7996  15.7222

          k =-0.0800-0.1386-0.0700 ( 16916 PWs)   bands (ev):

   -59.1913 -35.2779 -35.2660 -35.1732 -35.1680 -35.1548 -34.6935 -34.6836
   -34.5004 -34.4976 -34.4743 -33.4517 -33.0965 -33.0580 -14.3081 -13.1257
    -3.4570  -1.0505  -0.1581   0.3021   0.6605   1.2541   1.8689   2.6245
     3.5838   4.2496   5.2140   5.5274   6.0189   6.4445   7.1412   8.1941
     8.5620  10.2854  10.5537  11.0948  11.4363  11.6762  12.4273  12.8911
    13.5815  13.7774  14.4697  14.7503  15.0024  15.5301

          k =-0.0733-0.1270-0.0700 ( 16908 PWs)   bands (ev):

   -59.1921 -35.2777 -35.2676 -35.1721 -35.1676 -35.1556 -34.6935 -34.6851
   -34.4998 -34.4975 -34.4752 -33.4540 -33.0889 -33.0560 -14.3560 -13.1756
    -3.5143  -1.1049  -0.0415   0.2888   0.7041   1.2455   1.8896   2.5640
     3.8716   4.4051   5.3522   5.6045   5.9657   6.3826   7.0846   8.1306
     8.5118  10.2344  10.5918  11.0173  11.4818  11.6371  12.4861  12.9010
    13.4766  13.7235  14.4533  14.8399  15.2080  15.2281

          k =-0.0667-0.1155-0.0700 ( 16908 PWs)   bands (ev):

   -59.1928 -35.2775 -35.2690 -35.1711 -35.1673 -35.1564 -34.6935 -34.6864
   -34.4993 -34.4973 -34.4761 -33.4561 -33.0818 -33.0542 -14.4000 -13.2214
    -3.5675  -1.1548   0.0637   0.2793   0.7365   1.2457   1.9108   2.5011
     4.1542   4.5753   5.4773   5.6766   5.9187   6.3257   7.0328   8.0722
     8.4656  10.1825  10.6377  10.9293  11.4983  11.6598  12.4783  12.9501
    13.3596  13.6687  14.3952  14.8297  15.0494  15.3115

          k =-0.0600-0.1039-0.0700 ( 16910 PWs)   bands (ev):

   -59.1935 -35.2773 -35.2703 -35.1702 -35.1670 -35.1571 -34.6934 -34.6876
   -34.4988 -34.4972 -34.4768 -33.4581 -33.0753 -33.0525 -14.4400 -13.2631
    -3.6164  -1.2002   0.1466   0.2851   0.7566   1.2563   1.9311   2.4368
     4.4281   4.7583   5.5873   5.7419   5.8805   6.2739   6.9856   8.0190
     8.4231  10.1306  10.6824  10.8355  11.4908  11.7450  12.4228  12.9962
    13.2601  13.6140  14.2928  14.6099  15.0581  15.3237

          k =-0.0533-0.0924-0.0700 ( 16902 PWs)   bands (ev):

   -59.1941 -35.2772 -35.2715 -35.1693 -35.1668 -35.1577 -34.6934 -34.6888
   -34.4984 -34.4971 -34.4775 -33.4599 -33.0693 -33.0511 -14.4760 -13.3005
    -3.6608  -1.2410   0.1832   0.3306   0.7657   1.2765   1.9499   2.3723
     4.6882   4.9526   5.6796   5.7888   5.8649   6.2273   6.9431   7.9712
     8.3843  10.0783  10.6746  10.7839  11.4951  11.8625  12.3379  12.9727
    13.2290  13.5592  14.1350  14.4158  14.9868  15.4298

          k =-0.0467-0.0808-0.0700 ( 16904 PWs)   bands (ev):

   -59.1946 -35.2770 -35.2726 -35.1685 -35.1666 -35.1583 -34.6934 -34.6898
   -34.4980 -34.4969 -34.4782 -33.4616 -33.0639 -33.0498 -14.5078 -13.3336
    -3.7004  -1.2772   0.1848   0.4043   0.7663   1.3039   1.9666   2.3086
     4.9282   5.1562   5.7464   5.7964   5.9008   6.1860   6.9051   7.9288
     8.3490  10.0246  10.5758  10.8120  11.5258  12.0023  12.2316  12.8854
    13.2557  13.5014  13.9489  14.2578  14.8945  15.5793

          k =-0.0400-0.0693-0.0700 ( 16904 PWs)   bands (ev):

   -59.1951 -35.2768 -35.2736 -35.1678 -35.1664 -35.1587 -34.6934 -34.6907
   -34.4976 -34.4969 -34.4787 -33.4630 -33.0591 -33.0487 -14.5356 -13.3625
    -3.7352  -1.3087   0.1770   0.4804   0.7615   1.3354   1.9810   2.2469
     5.1421   5.3645   5.7573   5.8282   5.9567   6.1500   6.8715   7.8919
     8.3170   9.9675  10.4638  10.8445  11.5882  12.1045  12.1656  12.7881
    13.2859  13.4351  13.7748  14.1142  14.8143  15.2917

          k =-0.0333-0.0577-0.0700 ( 16890 PWs)   bands (ev):

   -59.1955 -35.2767 -35.2744 -35.1672 -35.1662 -35.1592 -34.6933 -34.6915
   -34.4973 -34.4968 -34.4792 -33.4642 -33.0550 -33.0477 -14.5591 -13.3869
    -3.7648  -1.3354   0.1675   0.5504   0.7541   1.3684   1.9931   2.1884
     5.3248   5.5681   5.7524   5.8700   6.0110   6.1196   6.8421   7.8605
     8.2883   9.9049  10.3603  10.8674  11.6810  11.9748  12.3406  12.7003
    13.2900  13.3634  13.6295  13.9886  14.7451  14.9832

          k =-0.0267-0.0462-0.0700 ( 16882 PWs)   bands (ev):

   -59.1958 -35.2766 -35.2751 -35.1667 -35.1661 -35.1595 -34.6933 -34.6921
   -34.4970 -34.4967 -34.4795 -33.4652 -33.0517 -33.0469 -14.5784 -13.4070
    -3.7893  -1.3573   0.1586   0.6111   0.7460   1.4003   2.0030   2.1349
     5.4653   5.7545   5.7666   5.9033   6.0582   6.0949   6.8170   7.8348
     8.2630   9.8367  10.2752  10.8810  11.7768  11.8674  12.5339  12.6273
    13.2023  13.3418  13.5153  13.8936  14.6216  14.7521

          k =-0.0200-0.0346-0.0700 ( 16870 PWs)   bands (ev):

   -59.1961 -35.2765 -35.2757 -35.1663 -35.1660 -35.1598 -34.6933 -34.6926
   -34.4968 -34.4967 -34.4798 -33.4660 -33.0490 -33.0463 -14.5934 -13.4226
    -3.8084  -1.3743   0.1512   0.6607   0.7385   1.4291   2.0105   2.0885
     5.5474   5.8139   5.9139   5.9281   6.0761   6.0964   6.7963   7.8147
     8.2415   9.7675  10.2124  10.8880  11.7002  11.9671  12.5701  12.7403
    13.0560  13.3415  13.4307  13.8321  14.3515  14.6907

          k =-0.0133-0.0231-0.0700 ( 16850 PWs)   bands (ev):

   -59.1963 -35.2765 -35.2761 -35.1661 -35.1659 -35.1600 -34.6933 -34.6930
   -34.4967 -34.4966 -34.4801 -33.4666 -33.0471 -33.0459 -14.6042 -13.4337
    -3.8221  -1.3865   0.1456   0.6974   0.7327   1.4523   2.0159   2.0520
     5.5793   5.8829   5.9451   6.0276   6.0709   6.1236   6.7802   7.8002
     8.2248   9.7069  10.1710  10.8911  11.6039  12.1288  12.5297  12.8571
    12.9839  13.3405  13.3735  13.7956  14.0741  14.6624

          k =-0.0067-0.0115-0.0700 ( 16836 PWs)   bands (ev):

   -59.1964 -35.2764 -35.2763 -35.1659 -35.1658 -35.1601 -34.6933 -34.6932
   -34.4966 -34.4966 -34.4802 -33.4669 -33.0460 -33.0457 -14.6107 -13.4405
    -3.8304  -1.3939   0.1422   0.7201   0.7290   1.4677   2.0190   2.0283
     5.5890   5.9380   5.9551   6.0462   6.1208   6.1402   6.7699   7.7915
     8.2140   9.6655  10.1479  10.8923  11.5400  12.3062  12.5056  12.6823
    13.1914  13.3374  13.3424  13.7604  13.8351  14.6468

          k = 0.0000 0.0000-0.0700 ( 16816 PWs)   bands (ev):

   -59.1964 -35.2764 -35.2764 -35.1658 -35.1658 -35.1602 -34.6933 -34.6933
   -34.4966 -34.4966 -34.4802 -33.4670 -33.0456 -33.0456 -14.6128 -13.4427
    -3.8331  -1.3963   0.1411   0.7277   0.7277   1.4731   2.0201   2.0201
     5.5911   5.9584   5.9584   6.0448   6.1457   6.1457   6.7662   7.7886
     8.2103   9.6508  10.1405  10.8926  11.5177  12.4880  12.4976  12.4976
    13.3290  13.3290  13.3394  13.6518  13.7879  14.6417

          k =-0.5000-0.2887-0.0700 ( 16956 PWs)   bands (ev):

   -59.1675 -35.2904 -35.2160 -35.2055 -35.1767 -35.1290 -34.6981 -34.6371
   -34.5183 -34.5021 -34.4452 -33.3811 -33.3310 -33.1103 -12.2650 -10.9609
    -5.0296  -3.3395  -1.8696  -0.2820   0.0798   1.4620   2.0480   2.6157
     3.3423   3.8587   4.4468   5.5644   6.8677   7.1200   7.7664   8.2882
     8.8144   9.8294  10.4225  10.8038  11.2129  11.4605  11.6649  12.3338
    12.4602  12.5959  13.1442  13.3210  13.5730  14.7259

          k =-0.5000-0.2887-0.0525 ( 16918 PWs)   bands (ev):

   -59.1675 -35.2904 -35.2160 -35.2055 -35.1767 -35.1290 -34.6981 -34.6371
   -34.5183 -34.5021 -34.4452 -33.3811 -33.3310 -33.1103 -12.2650 -10.9609
    -5.0296  -3.3395  -1.8695  -0.2820   0.0798   1.4620   2.0480   2.6157
     3.3423   3.8587   4.4468   5.5644   6.8677   7.1200   7.7664   8.2882
     8.8144   9.8298  10.4226  10.8034  11.1981  11.4660  11.6993  12.2664
    12.5098  12.5960  13.0360  13.4228  13.6172  14.6674

          k =-0.5000-0.2887-0.0350 ( 16908 PWs)   bands (ev):

   -59.1675 -35.2904 -35.2160 -35.2055 -35.1767 -35.1290 -34.6981 -34.6371
   -34.5183 -34.5021 -34.4452 -33.3811 -33.3310 -33.1103 -12.2650 -10.9609
    -5.0296  -3.3395  -1.8695  -0.2820   0.0798   1.4620   2.0480   2.6157
     3.3423   3.8587   4.4468   5.5644   6.8677   7.1200   7.7663   8.2882
     8.8143   9.8307  10.4228  10.8031  11.1624  11.4954  11.7647  12.1860
    12.5206  12.5960  12.9404  13.4870  13.7867  14.5499

          k =-0.5000-0.2887-0.0175 ( 16904 PWs)   bands (ev):

   -59.1675 -35.2904 -35.2160 -35.2055 -35.1767 -35.1290 -34.6981 -34.6371
   -34.5183 -34.5021 -34.4452 -33.3811 -33.3310 -33.1103 -12.2650 -10.9609
    -5.0296  -3.3395  -1.8695  -0.2820   0.0798   1.4620   2.0480   2.6157
     3.3423   3.8587   4.4468   5.5644   6.8677   7.1200   7.7663   8.2882
     8.8143   9.8317  10.4229  10.8042  11.1280  11.5435  11.7944  12.1802
    12.4306  12.5960  12.9333  13.5063  14.0112  14.4464

          k =-0.5000-0.2887 0.0000 ( 16884 PWs)   bands (ev):

   -59.1675 -35.2904 -35.2160 -35.2055 -35.1767 -35.1290 -34.6981 -34.6371
   -34.5183 -34.5021 -34.4451 -33.3811 -33.3310 -33.1103 -12.2650 -10.9609
    -5.0296  -3.3395  -1.8695  -0.2820   0.0798   1.4620   2.0480   2.6157
     3.3423   3.8587   4.4468   5.5644   6.8677   7.1200   7.7663   8.2882
     8.8142   9.8321  10.4229  10.8051  11.1142  11.5714  11.7878  12.2313
    12.3434  12.5960  12.9435  13.5121  14.1623  14.3917

          k =-0.3333-0.5774-0.0700 ( 16830 PWs)   bands (ev):

   -59.1639 -35.2583 -35.2406 -35.1941 -35.1929 -35.1291 -34.6631 -34.6631
   -34.5119 -34.5119 -34.4436 -33.3668 -33.2585 -33.2312 -11.8833 -10.5527
    -3.7609  -3.4178  -1.6951  -1.6928  -1.3233   0.9256   0.9669   2.0536
     2.1911   2.8092   5.2846   6.6127   7.1825   7.9526   8.3803   9.4167
     9.4735  10.6515  11.2718  11.8303  12.1566  12.1953  12.8132  12.9089
    13.0223  13.0846  13.2518  13.9741  14.0210  14.4232

          k =-0.3333-0.5774-0.0525 ( 16821 PWs)   bands (ev):

   -59.1639 -35.2583 -35.2406 -35.1941 -35.1929 -35.1291 -34.6631 -34.6631
   -34.5119 -34.5119 -34.4436 -33.3668 -33.2585 -33.2312 -11.8833 -10.5527
    -3.7609  -3.4178  -1.6951  -1.6928  -1.3233   0.9256   0.9669   2.0536
     2.1911   2.8092   5.2846   6.6127   7.1825   7.9526   8.3803   9.4167
     9.4735  10.6515  11.2722  11.8317  12.1605  12.1900  12.7844  12.9322
    12.9440  13.1841  13.3006  13.7924  14.2164  14.2834

          k =-0.3333-0.5774-0.0350 ( 16794 PWs)   bands (ev):

   -59.1639 -35.2583 -35.2406 -35.1941 -35.1929 -35.1291 -34.6631 -34.6631
   -34.5119 -34.5119 -34.4436 -33.3668 -33.2585 -33.2312 -11.8833 -10.5526
    -3.7609  -3.4178  -1.6951  -1.6928  -1.3233   0.9256   0.9669   2.0536
     2.1911   2.8092   5.2846   6.6127   7.1825   7.9526   8.3803   9.4167
     9.4735  10.6513  11.2731  11.8352  12.1705  12.1778  12.7273  12.8661
    12.9972  13.3254  13.4178  13.6058  14.0856  14.2474

          k =-0.3333-0.5774-0.0175 ( 16821 PWs)   bands (ev):

   -59.1639 -35.2583 -35.2406 -35.1941 -35.1929 -35.1291 -34.6631 -34.6631
   -34.5119 -34.5119 -34.4436 -33.3668 -33.2585 -33.2312 -11.8833 -10.5527
    -3.7609  -3.4178  -1.6951  -1.6928  -1.3233   0.9256   0.9669   2.0536
     2.1911   2.8092   5.2846   6.6127   7.1825   7.9526   8.3803   9.4167
     9.4734  10.6511  11.2740  11.8388  12.1663  12.1814  12.6795  12.8166
    13.0896  13.4438  13.4762  13.5608  13.8988  14.0518

          k =-0.3333-0.5774 0.0000 ( 16809 PWs)   bands (ev):

   -59.1639 -35.2583 -35.2406 -35.1941 -35.1929 -35.1291 -34.6631 -34.6631
   -34.5119 -34.5119 -34.4436 -33.3668 -33.2585 -33.2312 -11.8833 -10.5527
    -3.7609  -3.4178  -1.6951  -1.6928  -1.3233   0.9256   0.9669   2.0536
     2.1911   2.8092   5.2846   6.6127   7.1825   7.9526   8.3803   9.4167
     9.4734  10.6511  11.2744  11.8403  12.1617  12.1863  12.6613  12.7996
    13.1553  13.3554  13.5778  13.6517  13.7851  13.9437

     Writing all to output data dir ./outdir/MoTe2.save/
 
     init_run     :      1.47s CPU      1.70s WALL (       1 calls)
     electrons    :   8373.21s CPU   8521.03s WALL (       1 calls)

     Called by init_run:
     wfcinit      :      0.00s CPU      0.00s WALL (       1 calls)
     wfcinit:atom :      2.64s CPU      2.71s WALL (     502 calls)
     wfcinit:wfcr :    179.96s CPU    183.78s WALL (     502 calls)
     potinit      :      0.12s CPU      0.20s WALL (       1 calls)
     hinit0       :      0.48s CPU      0.61s WALL (       1 calls)

     Called by electrons:
     c_bands      :   8373.19s CPU   8520.98s WALL (       1 calls)
     v_of_rho     :      0.11s CPU      0.18s WALL (       1 calls)
     v_h          :      0.01s CPU      0.01s WALL (       1 calls)
     v_xc         :      0.11s CPU      0.17s WALL (       1 calls)

     Called by c_bands:
     init_us_2    :      4.66s CPU      4.77s WALL (     502 calls)
     init_us_2:cp :      4.65s CPU      4.76s WALL (     502 calls)
     cegterg      :   8091.99s CPU   8229.29s WALL (    2102 calls)

     Called by sum_band:

     Called by *egterg:
     cdiaghg      :    180.59s CPU    182.02s WALL (   37951 calls)
     cegterg:over :    659.63s CPU    662.38s WALL (   37449 calls)
     cegterg:upda :    408.76s CPU    410.55s WALL (   37449 calls)
     cegterg:last :    683.34s CPU    685.58s WALL (   19752 calls)
     h_psi        :   6074.03s CPU   6205.65s WALL (   40053 calls)
     g_psi        :    112.24s CPU    112.70s WALL (   37449 calls)

     Called by h_psi:
     h_psi:calbec :    363.72s CPU    366.03s WALL (   40053 calls)
     vloc_psi     :   5301.03s CPU   5428.61s WALL (   40053 calls)
     add_vuspsi   :    372.32s CPU    373.78s WALL (   40053 calls)

     General routines
     calbec       :    363.45s CPU    365.81s WALL (   40053 calls)
     fft          :      0.05s CPU      0.22s WALL (      11 calls)
     fftw         :   4575.16s CPU   4677.65s WALL ( 1696426 calls)
     davcio       :      0.21s CPU      8.01s WALL (    1004 calls)
 
     Parallel routines
 
     PWSCF        :      2h19m CPU      2h22m WALL

 
   This run was terminated on:   3:34: 4  11Jan2024            

=------------------------------------------------------------------------------=
   JOB DONE.
=------------------------------------------------------------------------------=
