export BASH_ENV=/etc/profile.d/modules.sh

     Program PWSCF v.7.2 starts on 10Jan2024 at 21:15:34 

     This program is part of the open-source Quantum ESPRESSO suite
     for quantum simulation of materials; please cite
         "P. Giannozzi et al., J. Phys.:Condens. Matter 21 395502 (2009);
         "P. Giannozzi et al., J. Phys.:Condens. Matter 29 465901 (2017);
         "P. Giannozzi et al., J. Chem. Phys. 152 154105 (2020);
          URL http://www.quantum-espresso.org", 
     in publications or presentations arising from this work. More details at
     http://www.quantum-espresso.org/quote

     Parallel version (MPI & OpenMP), running on       2 processor cores
     Number of MPI processes:                 2
     Threads/MPI process:                     1

     MPI processes distributed on     1 nodes
     60515 MiB available memory on the printing compute node when the environment starts
 
     Reading input from nscf.in

     Current dimensions of program PWSCF are:
     Max number of different atomic species (ntypx) = 10
     Max number of k-points (npk) =  40000
     Max angular momentum in pseudopotentials (lmaxx) =  4

     Atomic positions and unit cell read from directory:
     ./outdir/MoTe2.save/
     Atomic positions from file used, from input discarded
 
 
     R & G space division:  proc/nbgrp/npool/nimage =       2
     Subspace diagonalization in iterative solution of the eigenvalue problem:
     a serial algorithm will be used

 
     Parallelization info
     --------------------
     sticks:   dense  smooth     PW     G-vecs:    dense   smooth      PW
     Min         411     411    120                67603    67603   10582
     Max         412     412    121                67614    67614   10599
     Sum         823     823    241               135217   135217   21181
 
     Using Slab Decomposition
 


     bravais-lattice index     =            4
     lattice parameter (alat)  =       6.0919  a.u.
     unit-cell volume          =    1397.8129 (a.u.)^3
     number of atoms/cell      =            3
     number of atomic types    =            2
     number of electrons       =        46.00
     number of Kohn-Sham states=           46
     kinetic-energy cutoff     =      80.0000  Ry
     charge density cutoff     =     320.0000  Ry
     Exchange-correlation= PBE
                           (   1   4   3   4   0   0   0)

     celldm(1)=   6.091936  celldm(2)=   0.000000  celldm(3)=   7.139248
     celldm(4)=   0.000000  celldm(5)=   0.000000  celldm(6)=   0.000000

     crystal axes: (cart. coord. in units of alat)
               a(1) = (   1.000000   0.000000   0.000000 )  
               a(2) = (  -0.500000   0.866025   0.000000 )  
               a(3) = (   0.000000   0.000000   7.139248 )  

     reciprocal axes: (cart. coord. in units 2 pi/alat)
               b(1) = (  1.000000  0.577350  0.000000 )  
               b(2) = (  0.000000  1.154701  0.000000 )  
               b(3) = (  0.000000  0.000000  0.140071 )  


     PseudoPot. # 1 for Mo read from file:
     ./Mo.upf
     MD5 check sum: 7ca7a9feba7bf08d88d14bc7fbf60c1e
     Pseudo is Norm-conserving + core correction, Zval = 14.0
     Generated using ONCVPSP code by D. R. Hamann
     Using radial grid of 1640 points,  6 beta functions with: 
                l(1) =   0
                l(2) =   0
                l(3) =   1
                l(4) =   1
                l(5) =   2
                l(6) =   2

     PseudoPot. # 2 for Te read from file:
     ./Te.upf
     MD5 check sum: 5809bc2f3532353a97804e96cbe9e3f7
     Pseudo is Norm-conserving + core correction, Zval = 16.0
     Generated using ONCVPSP code by D. R. Hamann
     Using radial grid of 1294 points,  9 beta functions with: 
                l(1) =   0
                l(2) =   0
                l(3) =   0
                l(4) =   1
                l(5) =   1
                l(6) =   2
                l(7) =   2
                l(8) =   3
                l(9) =   3

     atomic species   valence    mass     pseudopotential
        Mo            14.00    95.96000     Mo( 1.00)
        Te            16.00   127.60000     Te( 1.00)

      6 Sym. Ops. (no inversion) found


                                    s                        frac. trans.

      isym =  1     identity                                     

 cryst.   s( 1) = (     1          0          0      )
                  (     0          1          0      )
                  (     0          0          1      )

 cart.    s( 1) = (  1.0000000  0.0000000  0.0000000 )
                  (  0.0000000  1.0000000  0.0000000 )
                  (  0.0000000  0.0000000  1.0000000 )


      isym =  2     120 deg rotation - cryst. axis [0,0,1]       

 cryst.   s( 2) = (     0          1          0      )
                  (    -1         -1          0      )
                  (     0          0          1      )

 cart.    s( 2) = ( -0.5000000 -0.8660254  0.0000000 )
                  (  0.8660254 -0.5000000  0.0000000 )
                  (  0.0000000  0.0000000  1.0000000 )


      isym =  3     120 deg rotation - cryst. axis [0,0,-1]      

 cryst.   s( 3) = (    -1         -1          0      )
                  (     1          0          0      )
                  (     0          0          1      )

 cart.    s( 3) = ( -0.5000000  0.8660254  0.0000000 )
                  ( -0.8660254 -0.5000000  0.0000000 )
                  (  0.0000000  0.0000000  1.0000000 )


      isym =  4     inv. 180 deg rotation - cart. axis [1,0,0]   

 cryst.   s( 4) = (    -1          0          0      )
                  (     1          1          0      )
                  (     0          0          1      )

 cart.    s( 4) = ( -1.0000000 -0.0000000  0.0000000 )
                  (  0.0000000  1.0000000  0.0000000 )
                  (  0.0000000  0.0000000  1.0000000 )


      isym =  5     inv. 180 deg rotation - cryst. axis [0,1,0]  

 cryst.   s( 5) = (     1          1          0      )
                  (     0         -1          0      )
                  (     0          0          1      )

 cart.    s( 5) = (  0.5000000  0.8660254  0.0000000 )
                  (  0.8660254 -0.5000000  0.0000000 )
                  (  0.0000000  0.0000000  1.0000000 )


      isym =  6     inv. 180 deg rotation - cryst. axis [1,1,0]  

 cryst.   s( 6) = (     0         -1          0      )
                  (    -1          0          0      )
                  (     0          0          1      )

 cart.    s( 6) = (  0.5000000 -0.8660254  0.0000000 )
                  ( -0.8660254 -0.5000000  0.0000000 )
                  (  0.0000000  0.0000000  1.0000000 )


     point group C_3v (3m)  
     there are  3 classes
     the character table:

       E     2C3   3s_v 
A_1    1.00  1.00  1.00
A_2    1.00  1.00 -1.00
E      2.00 -1.00  0.00

     the symmetry operations in each class and the name of the first element:

     E        1
          identity                                               
     2C3      2    3
          120 deg rotation - cryst. axis [0,0,1]                 
     3s_v     4    5    6
          inv. 180 deg rotation - cart. axis [1,0,0]             

   Cartesian axes

     site n.     atom                  positions (alat units)
         1           Te  tau(   1) = (  -0.0000000   0.5773503   6.4732262  )
         2           Te  tau(   2) = (  -0.0000000   0.5773503   0.5799281  )
         3           Mo  tau(   3) = (   0.5000000   0.2886751   1.1679858  )

   Crystallographic axes

     site n.     atom                  positions (cryst. coord.)
         1           Te  tau(   1) = (  0.3333333  0.6666667  0.9067098  )
         2           Te  tau(   2) = (  0.3333333  0.6666667  0.0812310  )
         3           Mo  tau(   3) = (  0.6666667  0.3333333  0.1636007  )

     number of k points=   127 (tetrahedron method)
                       cart. coord. in units 2pi/alat
        k(    1) = (   0.0000000   0.0000000   0.0000000), wk =   0.0015432
        k(    2) = (   0.0000000   0.0320750   0.0000000), wk =   0.0092593
        k(    3) = (   0.0000000   0.0641500   0.0000000), wk =   0.0092593
        k(    4) = (   0.0000000   0.0962250   0.0000000), wk =   0.0092593
        k(    5) = (   0.0000000   0.1283001   0.0000000), wk =   0.0092593
        k(    6) = (   0.0000000   0.1603751   0.0000000), wk =   0.0092593
        k(    7) = (   0.0000000   0.1924501   0.0000000), wk =   0.0092593
        k(    8) = (   0.0000000   0.2245251   0.0000000), wk =   0.0092593
        k(    9) = (   0.0000000   0.2566001   0.0000000), wk =   0.0092593
        k(   10) = (   0.0000000   0.2886751   0.0000000), wk =   0.0092593
        k(   11) = (   0.0000000   0.3207501   0.0000000), wk =   0.0092593
        k(   12) = (   0.0000000   0.3528252   0.0000000), wk =   0.0092593
        k(   13) = (   0.0000000   0.3849002   0.0000000), wk =   0.0092593
        k(   14) = (   0.0000000   0.4169752   0.0000000), wk =   0.0092593
        k(   15) = (   0.0000000   0.4490502   0.0000000), wk =   0.0092593
        k(   16) = (   0.0000000   0.4811252   0.0000000), wk =   0.0092593
        k(   17) = (   0.0000000   0.5132002   0.0000000), wk =   0.0092593
        k(   18) = (   0.0000000   0.5452753   0.0000000), wk =   0.0092593
        k(   19) = (   0.0000000  -0.5773503   0.0000000), wk =   0.0046296
        k(   20) = (   0.0277778   0.0481125   0.0000000), wk =   0.0092593
        k(   21) = (   0.0277778   0.0801875   0.0000000), wk =   0.0185185
        k(   22) = (   0.0277778   0.1122626   0.0000000), wk =   0.0185185
        k(   23) = (   0.0277778   0.1443376   0.0000000), wk =   0.0185185
        k(   24) = (   0.0277778   0.1764126   0.0000000), wk =   0.0185185
        k(   25) = (   0.0277778   0.2084876   0.0000000), wk =   0.0185185
        k(   26) = (   0.0277778   0.2405626   0.0000000), wk =   0.0185185
        k(   27) = (   0.0277778   0.2726376   0.0000000), wk =   0.0185185
        k(   28) = (   0.0277778   0.3047126   0.0000000), wk =   0.0185185
        k(   29) = (   0.0277778   0.3367877   0.0000000), wk =   0.0185185
        k(   30) = (   0.0277778   0.3688627   0.0000000), wk =   0.0185185
        k(   31) = (   0.0277778   0.4009377   0.0000000), wk =   0.0185185
        k(   32) = (   0.0277778   0.4330127   0.0000000), wk =   0.0185185
        k(   33) = (   0.0277778   0.4650877   0.0000000), wk =   0.0185185
        k(   34) = (   0.0277778   0.4971627   0.0000000), wk =   0.0185185
        k(   35) = (   0.0277778   0.5292377   0.0000000), wk =   0.0185185
        k(   36) = (   0.0277778   0.5613128   0.0000000), wk =   0.0185185
        k(   37) = (   0.0555556   0.0962250   0.0000000), wk =   0.0092593
        k(   38) = (   0.0555556   0.1283001   0.0000000), wk =   0.0185185
        k(   39) = (   0.0555556   0.1603751   0.0000000), wk =   0.0185185
        k(   40) = (   0.0555556   0.1924501   0.0000000), wk =   0.0185185
        k(   41) = (   0.0555556   0.2245251   0.0000000), wk =   0.0185185
        k(   42) = (   0.0555556   0.2566001   0.0000000), wk =   0.0185185
        k(   43) = (   0.0555556   0.2886751   0.0000000), wk =   0.0185185
        k(   44) = (   0.0555556   0.3207501   0.0000000), wk =   0.0185185
        k(   45) = (   0.0555556   0.3528252   0.0000000), wk =   0.0185185
        k(   46) = (   0.0555556   0.3849002   0.0000000), wk =   0.0185185
        k(   47) = (   0.0555556   0.4169752   0.0000000), wk =   0.0185185
        k(   48) = (   0.0555556   0.4490502   0.0000000), wk =   0.0185185
        k(   49) = (   0.0555556   0.4811252   0.0000000), wk =   0.0185185
        k(   50) = (   0.0555556   0.5132002   0.0000000), wk =   0.0185185
        k(   51) = (   0.0555556   0.5452753   0.0000000), wk =   0.0185185
        k(   52) = (   0.0555556   0.5773503   0.0000000), wk =   0.0092593
        k(   53) = (   0.0833333   0.1443376   0.0000000), wk =   0.0092593
        k(   54) = (   0.0833333   0.1764126   0.0000000), wk =   0.0185185
        k(   55) = (   0.0833333   0.2084876   0.0000000), wk =   0.0185185
        k(   56) = (   0.0833333   0.2405626   0.0000000), wk =   0.0185185
        k(   57) = (   0.0833333   0.2726376   0.0000000), wk =   0.0185185
        k(   58) = (   0.0833333   0.3047126   0.0000000), wk =   0.0185185
        k(   59) = (   0.0833333   0.3367877   0.0000000), wk =   0.0185185
        k(   60) = (   0.0833333   0.3688627   0.0000000), wk =   0.0185185
        k(   61) = (   0.0833333   0.4009377   0.0000000), wk =   0.0185185
        k(   62) = (   0.0833333   0.4330127   0.0000000), wk =   0.0185185
        k(   63) = (   0.0833333   0.4650877   0.0000000), wk =   0.0185185
        k(   64) = (   0.0833333   0.4971627   0.0000000), wk =   0.0185185
        k(   65) = (   0.0833333   0.5292377   0.0000000), wk =   0.0185185
        k(   66) = (   0.0833333   0.5613128   0.0000000), wk =   0.0185185
        k(   67) = (   0.1111111   0.1924501   0.0000000), wk =   0.0092593
        k(   68) = (   0.1111111   0.2245251   0.0000000), wk =   0.0185185
        k(   69) = (   0.1111111   0.2566001   0.0000000), wk =   0.0185185
        k(   70) = (   0.1111111   0.2886751   0.0000000), wk =   0.0185185
        k(   71) = (   0.1111111   0.3207501   0.0000000), wk =   0.0185185
        k(   72) = (   0.1111111   0.3528252   0.0000000), wk =   0.0185185
        k(   73) = (   0.1111111   0.3849002   0.0000000), wk =   0.0185185
        k(   74) = (   0.1111111   0.4169752   0.0000000), wk =   0.0185185
        k(   75) = (   0.1111111   0.4490502   0.0000000), wk =   0.0185185
        k(   76) = (   0.1111111   0.4811252   0.0000000), wk =   0.0185185
        k(   77) = (   0.1111111   0.5132002   0.0000000), wk =   0.0185185
        k(   78) = (   0.1111111   0.5452753   0.0000000), wk =   0.0185185
        k(   79) = (   0.1111111   0.5773503   0.0000000), wk =   0.0092593
        k(   80) = (   0.1388889   0.2405626   0.0000000), wk =   0.0092593
        k(   81) = (   0.1388889   0.2726376   0.0000000), wk =   0.0185185
        k(   82) = (   0.1388889   0.3047126   0.0000000), wk =   0.0185185
        k(   83) = (   0.1388889   0.3367877   0.0000000), wk =   0.0185185
        k(   84) = (   0.1388889   0.3688627   0.0000000), wk =   0.0185185
        k(   85) = (   0.1388889   0.4009377   0.0000000), wk =   0.0185185
        k(   86) = (   0.1388889   0.4330127   0.0000000), wk =   0.0185185
        k(   87) = (   0.1388889   0.4650877   0.0000000), wk =   0.0185185
        k(   88) = (   0.1388889   0.4971627   0.0000000), wk =   0.0185185
        k(   89) = (   0.1388889   0.5292377   0.0000000), wk =   0.0185185
        k(   90) = (   0.1388889   0.5613128   0.0000000), wk =   0.0185185
        k(   91) = (   0.1666667   0.2886751   0.0000000), wk =   0.0092593
        k(   92) = (   0.1666667   0.3207501   0.0000000), wk =   0.0185185
        k(   93) = (   0.1666667   0.3528252   0.0000000), wk =   0.0185185
        k(   94) = (   0.1666667   0.3849002   0.0000000), wk =   0.0185185
        k(   95) = (   0.1666667   0.4169752   0.0000000), wk =   0.0185185
        k(   96) = (   0.1666667   0.4490502   0.0000000), wk =   0.0185185
        k(   97) = (   0.1666667   0.4811252   0.0000000), wk =   0.0185185
        k(   98) = (   0.1666667   0.5132002   0.0000000), wk =   0.0185185
        k(   99) = (   0.1666667   0.5452753   0.0000000), wk =   0.0185185
        k(  100) = (   0.1666667   0.5773503   0.0000000), wk =   0.0092593
        k(  101) = (   0.1944444   0.3367877   0.0000000), wk =   0.0092593
        k(  102) = (   0.1944444   0.3688627   0.0000000), wk =   0.0185185
        k(  103) = (   0.1944444   0.4009377   0.0000000), wk =   0.0185185
        k(  104) = (   0.1944444   0.4330127   0.0000000), wk =   0.0185185
        k(  105) = (   0.1944444   0.4650877   0.0000000), wk =   0.0185185
        k(  106) = (   0.1944444   0.4971627   0.0000000), wk =   0.0185185
        k(  107) = (   0.1944444   0.5292377   0.0000000), wk =   0.0185185
        k(  108) = (   0.1944444   0.5613128   0.0000000), wk =   0.0185185
        k(  109) = (   0.2222222   0.3849002   0.0000000), wk =   0.0092593
        k(  110) = (   0.2222222   0.4169752   0.0000000), wk =   0.0185185
        k(  111) = (   0.2222222   0.4490502   0.0000000), wk =   0.0185185
        k(  112) = (   0.2222222   0.4811252   0.0000000), wk =   0.0185185
        k(  113) = (   0.2222222   0.5132002   0.0000000), wk =   0.0185185
        k(  114) = (   0.2222222   0.5452753   0.0000000), wk =   0.0185185
        k(  115) = (   0.2222222   0.5773503   0.0000000), wk =   0.0092593
        k(  116) = (   0.2500000   0.4330127   0.0000000), wk =   0.0092593
        k(  117) = (   0.2500000   0.4650877   0.0000000), wk =   0.0185185
        k(  118) = (   0.2500000   0.4971627   0.0000000), wk =   0.0185185
        k(  119) = (   0.2500000   0.5292377   0.0000000), wk =   0.0185185
        k(  120) = (   0.2500000   0.5613128   0.0000000), wk =   0.0185185
        k(  121) = (   0.2777778   0.4811252   0.0000000), wk =   0.0092593
        k(  122) = (   0.2777778   0.5132002   0.0000000), wk =   0.0185185
        k(  123) = (   0.2777778   0.5452753   0.0000000), wk =   0.0185185
        k(  124) = (   0.2777778   0.5773503   0.0000000), wk =   0.0092593
        k(  125) = (   0.3055556   0.5292377   0.0000000), wk =   0.0092593
        k(  126) = (   0.3055556   0.5613128   0.0000000), wk =   0.0185185
        k(  127) = (   0.3333333   0.5773503   0.0000000), wk =   0.0030864

                       cryst. coord.
        k(    1) = (   0.0000000   0.0000000   0.0000000), wk =   0.0015432
        k(    2) = (   0.0000000   0.0277778   0.0000000), wk =   0.0092593
        k(    3) = (   0.0000000   0.0555556   0.0000000), wk =   0.0092593
        k(    4) = (   0.0000000   0.0833333   0.0000000), wk =   0.0092593
        k(    5) = (   0.0000000   0.1111111   0.0000000), wk =   0.0092593
        k(    6) = (   0.0000000   0.1388889   0.0000000), wk =   0.0092593
        k(    7) = (   0.0000000   0.1666667   0.0000000), wk =   0.0092593
        k(    8) = (   0.0000000   0.1944444   0.0000000), wk =   0.0092593
        k(    9) = (   0.0000000   0.2222222   0.0000000), wk =   0.0092593
        k(   10) = (   0.0000000   0.2500000   0.0000000), wk =   0.0092593
        k(   11) = (   0.0000000   0.2777778   0.0000000), wk =   0.0092593
        k(   12) = (   0.0000000   0.3055556   0.0000000), wk =   0.0092593
        k(   13) = (   0.0000000   0.3333333   0.0000000), wk =   0.0092593
        k(   14) = (   0.0000000   0.3611111   0.0000000), wk =   0.0092593
        k(   15) = (   0.0000000   0.3888889   0.0000000), wk =   0.0092593
        k(   16) = (   0.0000000   0.4166667   0.0000000), wk =   0.0092593
        k(   17) = (   0.0000000   0.4444444   0.0000000), wk =   0.0092593
        k(   18) = (   0.0000000   0.4722222   0.0000000), wk =   0.0092593
        k(   19) = (   0.0000000  -0.5000000   0.0000000), wk =   0.0046296
        k(   20) = (   0.0277778   0.0277778   0.0000000), wk =   0.0092593
        k(   21) = (   0.0277778   0.0555556   0.0000000), wk =   0.0185185
        k(   22) = (   0.0277778   0.0833333   0.0000000), wk =   0.0185185
        k(   23) = (   0.0277778   0.1111111   0.0000000), wk =   0.0185185
        k(   24) = (   0.0277778   0.1388889   0.0000000), wk =   0.0185185
        k(   25) = (   0.0277778   0.1666667   0.0000000), wk =   0.0185185
        k(   26) = (   0.0277778   0.1944444   0.0000000), wk =   0.0185185
        k(   27) = (   0.0277778   0.2222222   0.0000000), wk =   0.0185185
        k(   28) = (   0.0277778   0.2500000   0.0000000), wk =   0.0185185
        k(   29) = (   0.0277778   0.2777778   0.0000000), wk =   0.0185185
        k(   30) = (   0.0277778   0.3055556   0.0000000), wk =   0.0185185
        k(   31) = (   0.0277778   0.3333333   0.0000000), wk =   0.0185185
        k(   32) = (   0.0277778   0.3611111   0.0000000), wk =   0.0185185
        k(   33) = (   0.0277778   0.3888889   0.0000000), wk =   0.0185185
        k(   34) = (   0.0277778   0.4166667   0.0000000), wk =   0.0185185
        k(   35) = (   0.0277778   0.4444444   0.0000000), wk =   0.0185185
        k(   36) = (   0.0277778   0.4722222   0.0000000), wk =   0.0185185
        k(   37) = (   0.0555556   0.0555556   0.0000000), wk =   0.0092593
        k(   38) = (   0.0555556   0.0833333   0.0000000), wk =   0.0185185
        k(   39) = (   0.0555556   0.1111111   0.0000000), wk =   0.0185185
        k(   40) = (   0.0555556   0.1388889   0.0000000), wk =   0.0185185
        k(   41) = (   0.0555556   0.1666667   0.0000000), wk =   0.0185185
        k(   42) = (   0.0555556   0.1944444   0.0000000), wk =   0.0185185
        k(   43) = (   0.0555556   0.2222222   0.0000000), wk =   0.0185185
        k(   44) = (   0.0555556   0.2500000   0.0000000), wk =   0.0185185
        k(   45) = (   0.0555556   0.2777778   0.0000000), wk =   0.0185185
        k(   46) = (   0.0555556   0.3055556   0.0000000), wk =   0.0185185
        k(   47) = (   0.0555556   0.3333333   0.0000000), wk =   0.0185185
        k(   48) = (   0.0555556   0.3611111   0.0000000), wk =   0.0185185
        k(   49) = (   0.0555556   0.3888889   0.0000000), wk =   0.0185185
        k(   50) = (   0.0555556   0.4166667   0.0000000), wk =   0.0185185
        k(   51) = (   0.0555556   0.4444444   0.0000000), wk =   0.0185185
        k(   52) = (   0.0555556   0.4722222   0.0000000), wk =   0.0092593
        k(   53) = (   0.0833333   0.0833333   0.0000000), wk =   0.0092593
        k(   54) = (   0.0833333   0.1111111   0.0000000), wk =   0.0185185
        k(   55) = (   0.0833333   0.1388889   0.0000000), wk =   0.0185185
        k(   56) = (   0.0833333   0.1666667   0.0000000), wk =   0.0185185
        k(   57) = (   0.0833333   0.1944444   0.0000000), wk =   0.0185185
        k(   58) = (   0.0833333   0.2222222   0.0000000), wk =   0.0185185
        k(   59) = (   0.0833333   0.2500000   0.0000000), wk =   0.0185185
        k(   60) = (   0.0833333   0.2777778   0.0000000), wk =   0.0185185
        k(   61) = (   0.0833333   0.3055556   0.0000000), wk =   0.0185185
        k(   62) = (   0.0833333   0.3333333   0.0000000), wk =   0.0185185
        k(   63) = (   0.0833333   0.3611111   0.0000000), wk =   0.0185185
        k(   64) = (   0.0833333   0.3888889   0.0000000), wk =   0.0185185
        k(   65) = (   0.0833333   0.4166667   0.0000000), wk =   0.0185185
        k(   66) = (   0.0833333   0.4444444   0.0000000), wk =   0.0185185
        k(   67) = (   0.1111111   0.1111111   0.0000000), wk =   0.0092593
        k(   68) = (   0.1111111   0.1388889   0.0000000), wk =   0.0185185
        k(   69) = (   0.1111111   0.1666667   0.0000000), wk =   0.0185185
        k(   70) = (   0.1111111   0.1944444   0.0000000), wk =   0.0185185
        k(   71) = (   0.1111111   0.2222222   0.0000000), wk =   0.0185185
        k(   72) = (   0.1111111   0.2500000   0.0000000), wk =   0.0185185
        k(   73) = (   0.1111111   0.2777778   0.0000000), wk =   0.0185185
        k(   74) = (   0.1111111   0.3055556   0.0000000), wk =   0.0185185
        k(   75) = (   0.1111111   0.3333333   0.0000000), wk =   0.0185185
        k(   76) = (   0.1111111   0.3611111   0.0000000), wk =   0.0185185
        k(   77) = (   0.1111111   0.3888889   0.0000000), wk =   0.0185185
        k(   78) = (   0.1111111   0.4166667   0.0000000), wk =   0.0185185
        k(   79) = (   0.1111111   0.4444444   0.0000000), wk =   0.0092593
        k(   80) = (   0.1388889   0.1388889   0.0000000), wk =   0.0092593
        k(   81) = (   0.1388889   0.1666667   0.0000000), wk =   0.0185185
        k(   82) = (   0.1388889   0.1944444   0.0000000), wk =   0.0185185
        k(   83) = (   0.1388889   0.2222222   0.0000000), wk =   0.0185185
        k(   84) = (   0.1388889   0.2500000   0.0000000), wk =   0.0185185
        k(   85) = (   0.1388889   0.2777778   0.0000000), wk =   0.0185185
        k(   86) = (   0.1388889   0.3055556   0.0000000), wk =   0.0185185
        k(   87) = (   0.1388889   0.3333333   0.0000000), wk =   0.0185185
        k(   88) = (   0.1388889   0.3611111   0.0000000), wk =   0.0185185
        k(   89) = (   0.1388889   0.3888889   0.0000000), wk =   0.0185185
        k(   90) = (   0.1388889   0.4166667   0.0000000), wk =   0.0185185
        k(   91) = (   0.1666667   0.1666667   0.0000000), wk =   0.0092593
        k(   92) = (   0.1666667   0.1944444   0.0000000), wk =   0.0185185
        k(   93) = (   0.1666667   0.2222222   0.0000000), wk =   0.0185185
        k(   94) = (   0.1666667   0.2500000   0.0000000), wk =   0.0185185
        k(   95) = (   0.1666667   0.2777778   0.0000000), wk =   0.0185185
        k(   96) = (   0.1666667   0.3055556   0.0000000), wk =   0.0185185
        k(   97) = (   0.1666667   0.3333333   0.0000000), wk =   0.0185185
        k(   98) = (   0.1666667   0.3611111   0.0000000), wk =   0.0185185
        k(   99) = (   0.1666667   0.3888889   0.0000000), wk =   0.0185185
        k(  100) = (   0.1666667   0.4166667   0.0000000), wk =   0.0092593
        k(  101) = (   0.1944444   0.1944444   0.0000000), wk =   0.0092593
        k(  102) = (   0.1944444   0.2222222   0.0000000), wk =   0.0185185
        k(  103) = (   0.1944444   0.2500000   0.0000000), wk =   0.0185185
        k(  104) = (   0.1944444   0.2777778   0.0000000), wk =   0.0185185
        k(  105) = (   0.1944444   0.3055556   0.0000000), wk =   0.0185185
        k(  106) = (   0.1944444   0.3333333   0.0000000), wk =   0.0185185
        k(  107) = (   0.1944444   0.3611111   0.0000000), wk =   0.0185185
        k(  108) = (   0.1944444   0.3888889   0.0000000), wk =   0.0185185
        k(  109) = (   0.2222222   0.2222222   0.0000000), wk =   0.0092593
        k(  110) = (   0.2222222   0.2500000   0.0000000), wk =   0.0185185
        k(  111) = (   0.2222222   0.2777778   0.0000000), wk =   0.0185185
        k(  112) = (   0.2222222   0.3055556   0.0000000), wk =   0.0185185
        k(  113) = (   0.2222222   0.3333333   0.0000000), wk =   0.0185185
        k(  114) = (   0.2222222   0.3611111   0.0000000), wk =   0.0185185
        k(  115) = (   0.2222222   0.3888889   0.0000000), wk =   0.0092593
        k(  116) = (   0.2500000   0.2500000   0.0000000), wk =   0.0092593
        k(  117) = (   0.2500000   0.2777778   0.0000000), wk =   0.0185185
        k(  118) = (   0.2500000   0.3055556   0.0000000), wk =   0.0185185
        k(  119) = (   0.2500000   0.3333333   0.0000000), wk =   0.0185185
        k(  120) = (   0.2500000   0.3611111   0.0000000), wk =   0.0185185
        k(  121) = (   0.2777778   0.2777778   0.0000000), wk =   0.0092593
        k(  122) = (   0.2777778   0.3055556   0.0000000), wk =   0.0185185
        k(  123) = (   0.2777778   0.3333333   0.0000000), wk =   0.0185185
        k(  124) = (   0.2777778   0.3611111   0.0000000), wk =   0.0092593
        k(  125) = (   0.3055556   0.3055556   0.0000000), wk =   0.0092593
        k(  126) = (   0.3055556   0.3333333   0.0000000), wk =   0.0185185
        k(  127) = (   0.3333333   0.3333333   0.0000000), wk =   0.0030864

     Dense  grid:   135217 G-vectors     FFT dimensions: (  36,  36, 250)

     Dynamical RAM for                 wfc:       5.93 MB

     Dynamical RAM for     wfc (w. buffer):       5.93 MB

     Dynamical RAM for           str. fact:       2.06 MB

     Dynamical RAM for           local pot:       0.00 MB

     Dynamical RAM for          nlocal pot:      10.82 MB

     Dynamical RAM for                qrad:       8.61 MB

     Dynamical RAM for          rho,v,vnew:       6.80 MB

     Dynamical RAM for           G-vectors:       4.38 MB

     Dynamical RAM for          h,s,v(r/c):       0.39 MB

     Dynamical RAM for          <psi|beta>:       0.06 MB

     Dynamical RAM for                 psi:      11.86 MB

     Dynamical RAM for                hpsi:      11.86 MB

     Dynamical RAM for      wfcinit/wfcrot:      11.90 MB

     Estimated static dynamical RAM per process >      47.89 MB

     Estimated max dynamical RAM per process >      72.05 MB

     Estimated total dynamical RAM >     144.10 MB

     The potential is recalculated from file :
     ./outdir/MoTe2.save/charge-density

     Starting wfcs are   28 randomized atomic wfcs +   18 random wfcs

     Band Structure Calculation
     Davidson diagonalization with overlap

     Computing kpt #:     1  of   127
     total cpu time spent up to now is       18.3 secs

     Computing kpt #:     2  of   127
     total cpu time spent up to now is       35.0 secs

     Computing kpt #:     3  of   127
     total cpu time spent up to now is       51.7 secs

     Computing kpt #:     4  of   127
     total cpu time spent up to now is       68.4 secs

     Computing kpt #:     5  of   127
     total cpu time spent up to now is       86.1 secs

     Computing kpt #:     6  of   127
     total cpu time spent up to now is      103.0 secs

     Computing kpt #:     7  of   127
     c_bands:  1 eigenvalues not converged
     total cpu time spent up to now is      123.2 secs

     Computing kpt #:     8  of   127
     total cpu time spent up to now is      140.5 secs

     Computing kpt #:     9  of   127
     total cpu time spent up to now is      157.9 secs

     Computing kpt #:    10  of   127
     total cpu time spent up to now is      176.3 secs

     Computing kpt #:    11  of   127
     total cpu time spent up to now is      195.2 secs

     Computing kpt #:    12  of   127
     total cpu time spent up to now is      212.0 secs

     Computing kpt #:    13  of   127
     total cpu time spent up to now is      231.7 secs

     Computing kpt #:    14  of   127
     total cpu time spent up to now is      250.5 secs

     Computing kpt #:    15  of   127
     total cpu time spent up to now is      270.2 secs

     Computing kpt #:    16  of   127
     c_bands:  1 eigenvalues not converged
     total cpu time spent up to now is      290.0 secs

     Computing kpt #:    17  of   127
     c_bands:  1 eigenvalues not converged
     total cpu time spent up to now is      310.4 secs

     Computing kpt #:    18  of   127
     total cpu time spent up to now is      329.3 secs

     Computing kpt #:    19  of   127
     total cpu time spent up to now is      347.7 secs

     Computing kpt #:    20  of   127
     total cpu time spent up to now is      364.4 secs

     Computing kpt #:    21  of   127
     total cpu time spent up to now is      381.1 secs

     Computing kpt #:    22  of   127
     total cpu time spent up to now is      398.0 secs

     Computing kpt #:    23  of   127
     total cpu time spent up to now is      414.8 secs

     Computing kpt #:    24  of   127
     total cpu time spent up to now is      431.4 secs

     Computing kpt #:    25  of   127
     total cpu time spent up to now is      449.8 secs

     Computing kpt #:    26  of   127
     total cpu time spent up to now is      466.9 secs

     Computing kpt #:    27  of   127
     total cpu time spent up to now is      484.2 secs

     Computing kpt #:    28  of   127
     total cpu time spent up to now is      501.6 secs

     Computing kpt #:    29  of   127
     c_bands:  1 eigenvalues not converged
     total cpu time spent up to now is      521.3 secs

     Computing kpt #:    30  of   127
     total cpu time spent up to now is      538.4 secs

     Computing kpt #:    31  of   127
     total cpu time spent up to now is      555.6 secs

     Computing kpt #:    32  of   127
     total cpu time spent up to now is      574.4 secs

     Computing kpt #:    33  of   127
     total cpu time spent up to now is      591.4 secs

     Computing kpt #:    34  of   127
     total cpu time spent up to now is      610.5 secs

     Computing kpt #:    35  of   127
     total cpu time spent up to now is      629.2 secs

     Computing kpt #:    36  of   127
     total cpu time spent up to now is      647.9 secs

     Computing kpt #:    37  of   127
     total cpu time spent up to now is      666.2 secs

     Computing kpt #:    38  of   127
     total cpu time spent up to now is      682.3 secs

     Computing kpt #:    39  of   127
     total cpu time spent up to now is      699.4 secs

     Computing kpt #:    40  of   127
     total cpu time spent up to now is      716.4 secs

     Computing kpt #:    41  of   127
     total cpu time spent up to now is      733.5 secs

     Computing kpt #:    42  of   127
     total cpu time spent up to now is      750.6 secs

     Computing kpt #:    43  of   127
     total cpu time spent up to now is      767.5 secs

     Computing kpt #:    44  of   127
     total cpu time spent up to now is      784.8 secs

     Computing kpt #:    45  of   127
     total cpu time spent up to now is      803.2 secs

     Computing kpt #:    46  of   127
     total cpu time spent up to now is      820.2 secs

     Computing kpt #:    47  of   127
     total cpu time spent up to now is      838.8 secs

     Computing kpt #:    48  of   127
     total cpu time spent up to now is      857.3 secs

     Computing kpt #:    49  of   127
     total cpu time spent up to now is      874.7 secs

     Computing kpt #:    50  of   127
     total cpu time spent up to now is      892.6 secs

     Computing kpt #:    51  of   127
     total cpu time spent up to now is      911.7 secs

     Computing kpt #:    52  of   127
     total cpu time spent up to now is      930.2 secs

     Computing kpt #:    53  of   127
     total cpu time spent up to now is      946.8 secs

     Computing kpt #:    54  of   127
     total cpu time spent up to now is      963.3 secs

     Computing kpt #:    55  of   127
     total cpu time spent up to now is      979.7 secs

     Computing kpt #:    56  of   127
     total cpu time spent up to now is      996.0 secs

     Computing kpt #:    57  of   127
     total cpu time spent up to now is     1012.4 secs

     Computing kpt #:    58  of   127
     total cpu time spent up to now is     1029.3 secs

     Computing kpt #:    59  of   127
     total cpu time spent up to now is     1046.0 secs

     Computing kpt #:    60  of   127
     total cpu time spent up to now is     1063.8 secs

     Computing kpt #:    61  of   127
     total cpu time spent up to now is     1080.4 secs

     Computing kpt #:    62  of   127
     total cpu time spent up to now is     1097.3 secs

     Computing kpt #:    63  of   127
     total cpu time spent up to now is     1114.3 secs

     Computing kpt #:    64  of   127
     total cpu time spent up to now is     1131.7 secs

     Computing kpt #:    65  of   127
     total cpu time spent up to now is     1149.8 secs

     Computing kpt #:    66  of   127
     total cpu time spent up to now is     1168.6 secs

     Computing kpt #:    67  of   127
     total cpu time spent up to now is     1184.1 secs

     Computing kpt #:    68  of   127
     total cpu time spent up to now is     1200.5 secs

     Computing kpt #:    69  of   127
     total cpu time spent up to now is     1215.8 secs

     Computing kpt #:    70  of   127
     total cpu time spent up to now is     1230.8 secs

     Computing kpt #:    71  of   127
     total cpu time spent up to now is     1246.4 secs

     Computing kpt #:    72  of   127
     total cpu time spent up to now is     1261.9 secs

     Computing kpt #:    73  of   127
     total cpu time spent up to now is     1278.9 secs

     Computing kpt #:    74  of   127
     total cpu time spent up to now is     1294.7 secs

     Computing kpt #:    75  of   127
     total cpu time spent up to now is     1311.4 secs

     Computing kpt #:    76  of   127
     total cpu time spent up to now is     1327.5 secs

     Computing kpt #:    77  of   127
     total cpu time spent up to now is     1344.2 secs

     Computing kpt #:    78  of   127
     total cpu time spent up to now is     1362.4 secs

     Computing kpt #:    79  of   127
     total cpu time spent up to now is     1379.8 secs

     Computing kpt #:    80  of   127
     total cpu time spent up to now is     1395.1 secs

     Computing kpt #:    81  of   127
     total cpu time spent up to now is     1410.1 secs

     Computing kpt #:    82  of   127
     total cpu time spent up to now is     1425.2 secs

     Computing kpt #:    83  of   127
     total cpu time spent up to now is     1440.5 secs

     Computing kpt #:    84  of   127
     total cpu time spent up to now is     1455.9 secs

     Computing kpt #:    85  of   127
     total cpu time spent up to now is     1472.4 secs

     Computing kpt #:    86  of   127
     total cpu time spent up to now is     1489.4 secs

     Computing kpt #:    87  of   127
     total cpu time spent up to now is     1506.3 secs

     Computing kpt #:    88  of   127
     total cpu time spent up to now is     1522.6 secs

     Computing kpt #:    89  of   127
     total cpu time spent up to now is     1539.4 secs

     Computing kpt #:    90  of   127
     total cpu time spent up to now is     1555.9 secs

     Computing kpt #:    91  of   127
     total cpu time spent up to now is     1570.6 secs

     Computing kpt #:    92  of   127
     total cpu time spent up to now is     1585.4 secs

     Computing kpt #:    93  of   127
     total cpu time spent up to now is     1600.9 secs

     Computing kpt #:    94  of   127
     total cpu time spent up to now is     1617.1 secs

     Computing kpt #:    95  of   127
     total cpu time spent up to now is     1633.8 secs

     Computing kpt #:    96  of   127
     total cpu time spent up to now is     1651.0 secs

     Computing kpt #:    97  of   127
     total cpu time spent up to now is     1667.0 secs

     Computing kpt #:    98  of   127
     total cpu time spent up to now is     1683.5 secs

     Computing kpt #:    99  of   127
     total cpu time spent up to now is     1700.2 secs

     Computing kpt #:   100  of   127
     total cpu time spent up to now is     1717.5 secs

     Computing kpt #:   101  of   127
     total cpu time spent up to now is     1732.4 secs

     Computing kpt #:   102  of   127
     total cpu time spent up to now is     1749.1 secs

     Computing kpt #:   103  of   127
     total cpu time spent up to now is     1764.4 secs

     Computing kpt #:   104  of   127
     total cpu time spent up to now is     1781.2 secs

     Computing kpt #:   105  of   127
     total cpu time spent up to now is     1797.9 secs

     Computing kpt #:   106  of   127
     total cpu time spent up to now is     1815.4 secs

     Computing kpt #:   107  of   127
     total cpu time spent up to now is     1833.8 secs

     Computing kpt #:   108  of   127
     total cpu time spent up to now is     1851.7 secs

     Computing kpt #:   109  of   127
     total cpu time spent up to now is     1868.2 secs

     Computing kpt #:   110  of   127
     total cpu time spent up to now is     1885.3 secs

     Computing kpt #:   111  of   127
     total cpu time spent up to now is     1902.7 secs

     Computing kpt #:   112  of   127
     total cpu time spent up to now is     1921.3 secs

     Computing kpt #:   113  of   127
     total cpu time spent up to now is     1939.2 secs

     Computing kpt #:   114  of   127
     total cpu time spent up to now is     1958.3 secs

     Computing kpt #:   115  of   127
     total cpu time spent up to now is     1975.7 secs

     Computing kpt #:   116  of   127
     total cpu time spent up to now is     1992.5 secs

     Computing kpt #:   117  of   127
     total cpu time spent up to now is     2011.3 secs

     Computing kpt #:   118  of   127
     total cpu time spent up to now is     2030.7 secs

     Computing kpt #:   119  of   127
     total cpu time spent up to now is     2049.0 secs

     Computing kpt #:   120  of   127
     total cpu time spent up to now is     2068.5 secs

     Computing kpt #:   121  of   127
     total cpu time spent up to now is     2087.2 secs

     Computing kpt #:   122  of   127
     total cpu time spent up to now is     2106.8 secs

     Computing kpt #:   123  of   127
     total cpu time spent up to now is     2125.8 secs

     Computing kpt #:   124  of   127
     total cpu time spent up to now is     2142.5 secs

     Computing kpt #:   125  of   127
     total cpu time spent up to now is     2160.4 secs

     Computing kpt #:   126  of   127
     total cpu time spent up to now is     2177.5 secs

     Computing kpt #:   127  of   127
     total cpu time spent up to now is     2192.8 secs

     ethr =  1.30E-12,  avg # of iterations = 73.2

     total cpu time spent up to now is     2193.2 secs

     End of band structure calculation

          k = 0.0000 0.0000 0.0000 ( 16881 PWs)   bands (ev):

   -59.1964 -35.2764 -35.2764 -35.1658 -35.1658 -35.1602 -34.6933 -34.6933
   -34.4966 -34.4966 -34.4802 -33.4670 -33.0456 -33.0456 -14.6128 -13.4427
    -3.8331  -1.3963   0.1411   0.7277   0.7277   1.4731   2.0201   2.0201
     5.6075   5.9584   5.9584   5.9850   6.1457   6.1457   6.9968   7.3362
     8.7531   9.3181   9.9164  11.4516  11.5657  12.2783  12.4976  12.4976
    12.7599  13.3290  13.3290  13.6575  14.1484  15.3961

     occupation numbers 
     1.0000   1.0000   1.0000   1.0000   1.0000   1.0000   1.0000   1.0000
     1.0000   1.0000   1.0000   1.0000   1.0000   1.0000   1.0000   1.0000
     1.0000   1.0000   1.0000   1.0000   1.0000   1.0000   0.0000   0.0000
     0.0000   0.0000   0.0000   0.0000   0.0000   0.0000   0.0000   0.0000
     0.0000   0.0000   0.0000   0.0000   0.0000   0.0000   0.0000   0.0000
     0.0000   0.0000   0.0000   0.0000   0.0000   0.0000

          k = 0.0000 0.0321 0.0000 ( 16869 PWs)   bands (ev):

   -59.1962 -35.2765 -35.2759 -35.1662 -35.1659 -35.1599 -34.6933 -34.6928
   -34.4968 -34.4966 -34.4800 -33.4664 -33.0478 -33.0461 -14.6004 -13.4298
    -3.8172  -1.3822   0.1476   0.6840   0.7350   1.4437   2.0141   2.0653
     5.5833   5.8580   5.9393   5.9781   6.0218   6.1142   7.0131   7.3574
     8.7701   9.3575   9.9990  11.4771  11.6400  12.0439  12.5126  12.5438
    12.8776  13.0500  13.3870  14.1138  14.2352  15.4178

     occupation numbers 
     1.0000   1.0000   1.0000   1.0000   1.0000   1.0000   1.0000   1.0000
     1.0000   1.0000   1.0000   1.0000   1.0000   1.0000   1.0000   1.0000
     1.0000   1.0000   1.0000   1.0000   1.0000   1.0000   0.0000   0.0000
     0.0000   0.0000   0.0000   0.0000   0.0000   0.0000   0.0000   0.0000
     0.0000   0.0000   0.0000   0.0000   0.0000   0.0000   0.0000   0.0000
     0.0000   0.0000   0.0000   0.0000   0.0000   0.0000

          k = 0.0000 0.0642 0.0000 ( 16871 PWs)   bands (ev):

   -59.1956 -35.2767 -35.2746 -35.1671 -35.1662 -35.1592 -34.6933 -34.6916
   -34.4972 -34.4968 -34.4792 -33.4644 -33.0544 -33.0475 -14.5631 -13.3910
    -3.7699  -1.3399   0.1656   0.5609   0.7554   1.3729   1.9981   2.1755
     5.3537   5.6004   5.7705   5.8809   6.0265   6.0538   7.0613   7.4107
     8.8196   9.4356  10.2232  11.3850  11.7366  11.9596  12.4559  12.5531
    12.6803  13.4184  13.5576  14.2500  14.9181  15.4776

     occupation numbers 
     1.0000   1.0000   1.0000   1.0000   1.0000   1.0000   1.0000   1.0000
     1.0000   1.0000   1.0000   1.0000   1.0000   1.0000   1.0000   1.0000
     1.0000   1.0000   1.0000   1.0000   1.0000   1.0000   0.0000   0.0000
     0.0000   0.0000   0.0000   0.0000   0.0000   0.0000   0.0000   0.0000
     0.0000   0.0000   0.0000   0.0000   0.0000   0.0000   0.0000   0.0000
     0.0000   0.0000   0.0000   0.0000   0.0000   0.0000

          k = 0.0000 0.0962 0.0000 ( 16899 PWs)   bands (ev):

   -59.1945 -35.2771 -35.2723 -35.1687 -35.1666 -35.1581 -34.6934 -34.6895
   -34.4980 -34.4970 -34.4780 -33.4612 -33.0651 -33.0499 -14.5013 -13.3268
    -3.6923  -1.2698   0.1820   0.3836   0.7844   1.2825   1.9777   2.3117
     4.8622   5.0983   5.7739   5.8117   5.9059   6.1308   7.1405   7.4855
     8.8994   9.5120  10.4340  11.2377  11.6422  11.8540  12.5649  12.7042
    12.9008  13.5588  13.8308  14.5074  15.4389  15.6251

     occupation numbers 
     1.0000   1.0000   1.0000   1.0000   1.0000   1.0000   1.0000   1.0000
     1.0000   1.0000   1.0000   1.0000   1.0000   1.0000   1.0000   1.0000
     1.0000   1.0000   1.0000   1.0000   1.0000   1.0000   0.0000   0.0000
     0.0000   0.0000   0.0000   0.0000   0.0000   0.0000   0.0000   0.0000
     0.0000   0.0000   0.0000   0.0000   0.0000   0.0000   0.0000   0.0000
     0.0000   0.0000   0.0000   0.0000   0.0000   0.0000

          k = 0.0000 0.1283 0.0000 ( 16917 PWs)   bands (ev):

   -59.1931 -35.2776 -35.2693 -35.1708 -35.1672 -35.1566 -34.6936 -34.6867
   -34.4991 -34.4972 -34.4764 -33.4569 -33.0797 -33.0532 -14.4155 -13.2377
    -3.5866  -1.1728   0.0668   0.2907   0.8142   1.1822   1.9626   2.4433
     4.2145   4.6263   5.6069   5.7833   5.8994   6.2383   7.2503   7.5802
     9.0073   9.5771  10.3702  11.2033  11.3910  12.0089  12.5737  13.0777
    13.1964  13.6129  14.1930  14.7043  15.2749  15.7648

     occupation numbers 
     1.0000   1.0000   1.0000   1.0000   1.0000   1.0000   1.0000   1.0000
     1.0000   1.0000   1.0000   1.0000   1.0000   1.0000   1.0000   1.0000
     1.0000   1.0000   1.0000   1.0000   1.0000   1.0000   0.0000   0.0000
     0.0000   0.0000   0.0000   0.0000   0.0000   0.0000   0.0000   0.0000
     0.0000   0.0000   0.0000   0.0000   0.0000   0.0000   0.0000   0.0000
     0.0000   0.0000   0.0000   0.0000   0.0000   0.0000

          k = 0.0000 0.1604 0.0000 ( 16903 PWs)   bands (ev):

   -59.1913 -35.2783 -35.2656 -35.1734 -35.1679 -35.1548 -34.6938 -34.6833
   -34.5005 -34.4976 -34.4743 -33.4516 -33.0975 -33.0572 -14.3067 -13.1243
    -3.4559  -1.0504  -0.2214   0.3250   0.8335   1.0787   1.9665   2.5380
     3.4905   4.2450   5.3952   5.6631   6.0178   6.3753   7.3897   7.6951
     9.1393   9.6015  10.1848  10.8121  11.5411  12.3090  12.5255  13.0486
    13.5570  14.0496  14.4868  14.6287  15.3247  15.6306

     occupation numbers 
     1.0000   1.0000   1.0000   1.0000   1.0000   1.0000   1.0000   1.0000
     1.0000   1.0000   1.0000   1.0000   1.0000   1.0000   1.0000   1.0000
     1.0000   1.0000   1.0000   1.0000   1.0000   1.0000   0.0000   0.0000
     0.0000   0.0000   0.0000   0.0000   0.0000   0.0000   0.0000   0.0000
     0.0000   0.0000   0.0000   0.0000   0.0000   0.0000   0.0000   0.0000
     0.0000   0.0000   0.0000   0.0000   0.0000   0.0000

          k = 0.0000 0.1925 0.0000 ( 16929 PWs)   bands (ev):

   -59.1892 -35.2792 -35.2613 -35.1763 -35.1687 -35.1526 -34.6940 -34.6793
   -34.5020 -34.4980 -34.4719 -33.4455 -33.1182 -33.0618 -14.1759 -12.9879
    -3.3047  -0.9082  -0.5700   0.3741   0.8305   0.9798   2.0034   2.5478
     2.7471   4.0095   5.1614   5.5411   6.1632   6.5407   7.5575   7.8299
     9.2810   9.5190  10.1046  10.4419  11.4763  12.3902  12.7058  13.0447
    13.9547  13.9716  14.7606  15.1133  15.1468  15.5756

     occupation numbers 
     1.0000   1.0000   1.0000   1.0000   1.0000   1.0000   1.0000   1.0000
     1.0000   1.0000   1.0000   1.0000   1.0000   1.0000   1.0000   1.0000
     1.0000   1.0000   1.0000   1.0000   1.0000   1.0000   0.0000   0.0000
     0.0000   0.0000   0.0000   0.0000   0.0000   0.0000   0.0000   0.0000
     0.0000   0.0000   0.0000   0.0000   0.0000   0.0000   0.0000   0.0000
     0.0000   0.0000   0.0000   0.0000   0.0000   0.0000

          k = 0.0000 0.2245 0.0000 ( 16943 PWs)   bands (ev):

   -59.1869 -35.2802 -35.2565 -35.1795 -35.1696 -35.1502 -34.6943 -34.6749
   -34.5038 -34.4984 -34.4692 -33.4387 -33.1409 -33.0670 -14.0248 -12.8298
    -3.1391  -0.9951  -0.7174   0.4173   0.7984   0.8968   1.9748   2.0823
     2.4924   3.9523   4.9198   5.4181   6.3339   6.7332   7.7513   7.9821
     9.2758   9.4852  10.0417  10.2246  11.1361  12.4390  12.7312  13.1778
    13.7885  14.4263  14.6496  15.2258  15.3820  15.5800

     occupation numbers 
     1.0000   1.0000   1.0000   1.0000   1.0000   1.0000   1.0000   1.0000
     1.0000   1.0000   1.0000   1.0000   1.0000   1.0000   1.0000   1.0000
     1.0000   1.0000   1.0000   1.0000   1.0000   1.0000   0.2094   0.0000
     0.0000   0.0000   0.0000   0.0000   0.0000   0.0000   0.0000   0.0000
     0.0000   0.0000   0.0000   0.0000   0.0000   0.0000   0.0000   0.0000
     0.0000   0.0000   0.0000   0.0000   0.0000   0.0000

          k = 0.0000 0.2566 0.0000 ( 16945 PWs)   bands (ev):

   -59.1845 -35.2813 -35.2514 -35.1829 -35.1705 -35.1476 -34.6947 -34.6701
   -34.5056 -34.4989 -34.4663 -33.4315 -33.1651 -33.0724 -13.8552 -12.6522
    -2.9687  -1.4265  -0.5414   0.4404   0.7385   0.8455   1.2334   2.2036
     2.3759   4.0363   4.6800   5.2966   6.5282   6.9509   7.9653   8.1459
     9.0849   9.5721   9.7632  10.3211  10.7283  12.2665  12.6914  13.2404
    13.7853  14.5104  14.8217  15.0151  15.3038  15.9718

     occupation numbers 
     1.0000   1.0000   1.0000   1.0000   1.0000   1.0000   1.0000   1.0000
     1.0000   1.0000   1.0000   1.0000   1.0000   1.0000   1.0000   1.0000
     1.0000   1.0000   1.0000   1.0000   1.0000   1.0000   1.0453   0.0000
     0.0000   0.0000   0.0000   0.0000   0.0000   0.0000   0.0000   0.0000
     0.0000   0.0000   0.0000   0.0000   0.0000   0.0000   0.0000   0.0000
     0.0000   0.0000   0.0000   0.0000   0.0000   0.0000

          k = 0.0000 0.2887 0.0000 ( 16947 PWs)   bands (ev):

   -59.1820 -35.2825 -35.2461 -35.1863 -35.1715 -35.1449 -34.6951 -34.6653
   -34.5075 -34.4994 -34.4632 -33.4240 -33.1898 -33.0780 -13.6699 -12.4575
    -2.8134  -1.8756  -0.3554   0.4339   0.5177   0.6583   0.8423   2.2798
     2.3607   4.2018   4.4489   5.1786   6.7439   7.1909   8.1757   8.3157
     8.9185   9.4476   9.5294  10.4531  10.5081  11.7844  12.8737  13.1415
    13.6010  14.5821  14.7445  15.1999  15.4218  16.0175

     occupation numbers 
     1.0000   1.0000   1.0000   1.0000   1.0000   1.0000   1.0000   1.0000
     1.0000   1.0000   1.0000   1.0000   1.0000   1.0000   1.0000   1.0000
     1.0000   1.0000   1.0000   1.0000   1.0000   1.0000   1.0000   0.0000
     0.0000   0.0000   0.0000   0.0000   0.0000   0.0000   0.0000   0.0000
     0.0000   0.0000   0.0000   0.0000   0.0000   0.0000   0.0000   0.0000
     0.0000   0.0000   0.0000   0.0000   0.0000   0.0000

          k = 0.0000 0.3208 0.0000 ( 16923 PWs)   bands (ev):

   -59.1795 -35.2838 -35.2409 -35.1897 -35.1724 -35.1422 -34.6956 -34.6604
   -34.5094 -34.4998 -34.4601 -33.4166 -33.2145 -33.0837 -13.4724 -12.2494
    -2.7584  -2.2440  -0.2090  -0.1577   0.4374   0.5666   0.8899   2.2319
     2.5447   4.2321   4.4113   5.0659   6.9771   7.4471   8.2907   8.5110
     8.7886   9.1884   9.2918  10.4641  10.6269  11.3632  12.6634  13.1528
    13.6631  14.2716  14.7221  15.1933  15.6940  15.7733

     occupation numbers 
     1.0000   1.0000   1.0000   1.0000   1.0000   1.0000   1.0000   1.0000
     1.0000   1.0000   1.0000   1.0000   1.0000   1.0000   1.0000   1.0000
     1.0000   1.0000   1.0000   1.0000   1.0000   1.0000   1.0000   0.0000
     0.0000   0.0000   0.0000   0.0000   0.0000   0.0000   0.0000   0.0000
     0.0000   0.0000   0.0000   0.0000   0.0000   0.0000   0.0000   0.0000
     0.0000   0.0000   0.0000   0.0000   0.0000   0.0000

          k = 0.0000 0.3528 0.0000 ( 16887 PWs)   bands (ev):

   -59.1771 -35.2850 -35.2358 -35.1930 -35.1733 -35.1395 -34.6960 -34.6557
   -34.5112 -34.5003 -34.4571 -33.4095 -33.2384 -33.0891 -13.2669 -12.0323
    -3.0322  -2.2945  -0.8250  -0.0921   0.4714   0.4903   0.9853   2.2339
     2.7465   4.0335   4.6448   4.9593   7.2187   7.7024   8.2828   8.4109
     8.8147   9.0127   9.2469  10.2590  10.8430  11.2150  12.2122  13.3401
    13.8133  13.9615  14.5988  14.6808  15.3403  15.5799

     occupation numbers 
     1.0000   1.0000   1.0000   1.0000   1.0000   1.0000   1.0000   1.0000
     1.0000   1.0000   1.0000   1.0000   1.0000   1.0000   1.0000   1.0000
     1.0000   1.0000   1.0000   1.0000   1.0000   1.0000   1.0000   0.0000
     0.0000   0.0000   0.0000   0.0000   0.0000   0.0000   0.0000   0.0000
     0.0000   0.0000   0.0000   0.0000   0.0000   0.0000   0.0000   0.0000
     0.0000   0.0000   0.0000   0.0000   0.0000   0.0000

          k = 0.0000 0.3849 0.0000 ( 16897 PWs)   bands (ev):

   -59.1748 -35.2863 -35.2310 -35.1961 -35.1742 -35.1370 -34.6965 -34.6512
   -34.5129 -34.5007 -34.4543 -33.4027 -33.2606 -33.0942 -13.0594 -11.8121
    -3.4590  -2.1945  -1.4222  -0.0823   0.3790   0.6222   1.1285   2.2743
     2.9571   3.8563   4.8593   4.8899   7.4417   7.8373   8.0513   8.3084
     8.8060   9.0740   9.4191   9.9242  11.0042  11.2953  11.8989  13.4219
    13.6597  13.9308  14.1121  14.5231  14.8239  15.3950

     occupation numbers 
     1.0000   1.0000   1.0000   1.0000   1.0000   1.0000   1.0000   1.0000
     1.0000   1.0000   1.0000   1.0000   1.0000   1.0000   1.0000   1.0000
     1.0000   1.0000   1.0000   1.0000   1.0000   1.0000   1.0000   0.0000
     0.0000   0.0000   0.0000   0.0000   0.0000   0.0000   0.0000   0.0000
     0.0000   0.0000   0.0000   0.0000   0.0000   0.0000   0.0000   0.0000
     0.0000   0.0000   0.0000   0.0000   0.0000   0.0000

          k = 0.0000 0.4170 0.0000 ( 16911 PWs)   bands (ev):

   -59.1727 -35.2874 -35.2267 -35.1988 -35.1750 -35.1347 -34.6969 -34.6472
   -34.5144 -34.5011 -34.4517 -33.3966 -33.2807 -33.0988 -12.8569 -11.5966
    -3.8816  -2.0919  -1.9583  -0.1199   0.2940   0.7962   1.3145   2.3384
     3.1679   3.7029   4.7659   5.1343   7.4258   7.6538   8.1229   8.4109
     8.6654   9.1244   9.6418   9.8383  10.8604  11.5365  11.8932  13.2356
    13.3751  13.5788  13.9054  14.4384  14.6763  15.0457

     occupation numbers 
     1.0000   1.0000   1.0000   1.0000   1.0000   1.0000   1.0000   1.0000
     1.0000   1.0000   1.0000   1.0000   1.0000   1.0000   1.0000   1.0000
     1.0000   1.0000   1.0000   1.0000   1.0000   1.0000   1.0000   0.0000
     0.0000   0.0000   0.0000   0.0000   0.0000   0.0000   0.0000   0.0000
     0.0000   0.0000   0.0000   0.0000   0.0000   0.0000   0.0000   0.0000
     0.0000   0.0000   0.0000   0.0000   0.0000   0.0000

          k = 0.0000 0.4491 0.0000 ( 16905 PWs)   bands (ev):

   -59.1709 -35.2884 -35.2230 -35.2011 -35.1756 -35.1328 -34.6973 -34.6437
   -34.5158 -34.5015 -34.4495 -33.3913 -33.2981 -33.1028 -12.6684 -11.3951
    -4.2631  -2.4288  -2.0035  -0.1699   0.2201   0.9807   1.5250   2.4126
     3.3697   3.5756   4.6786   5.3592   7.0680   7.6856   8.1898   8.4813
     8.5342   9.1633   9.8241  10.0657  10.6688  11.8002  12.0653  12.7426
    13.1183  13.2903  13.6060  14.1645  14.4759  14.9168

     occupation numbers 
     1.0000   1.0000   1.0000   1.0000   1.0000   1.0000   1.0000   1.0000
     1.0000   1.0000   1.0000   1.0000   1.0000   1.0000   1.0000   1.0000
     1.0000   1.0000   1.0000   1.0000   1.0000   1.0000   1.0000   0.0000
     0.0000   0.0000   0.0000   0.0000   0.0000   0.0000   0.0000   0.0000
     0.0000   0.0000   0.0000   0.0000   0.0000   0.0000   0.0000   0.0000
     0.0000   0.0000   0.0000   0.0000   0.0000   0.0000

          k = 0.0000 0.4811 0.0000 ( 16913 PWs)   bands (ev):

   -59.1695 -35.2893 -35.2200 -35.2030 -35.1761 -35.1312 -34.6977 -34.6409
   -34.5169 -34.5018 -34.4476 -33.3870 -33.3121 -33.1060 -12.5043 -11.2190
    -4.5832  -2.8126  -1.9414  -0.2162   0.1601   1.1591   1.7310   2.4862
     3.4718   3.5567   4.5976   5.5292   6.8006   7.6595   7.9919   8.3868
     8.7096   9.3625   9.8571  10.3782  10.7528  11.8537  12.2180  12.4040
    12.8987  12.9011  13.4880  13.7597  13.9501  14.9699

     occupation numbers 
     1.0000   1.0000   1.0000   1.0000   1.0000   1.0000   1.0000   1.0000
     1.0000   1.0000   1.0000   1.0000   1.0000   1.0000   1.0000   1.0000
     1.0000   1.0000   1.0000   1.0000   1.0000   1.0000   1.0073   0.0000
     0.0000   0.0000   0.0000   0.0000   0.0000   0.0000   0.0000   0.0000
     0.0000   0.0000   0.0000   0.0000   0.0000   0.0000   0.0000   0.0000
     0.0000   0.0000   0.0000   0.0000   0.0000   0.0000

          k = 0.0000 0.5132 0.0000 ( 16887 PWs)   bands (ev):

   -59.1684 -35.2899 -35.2178 -35.2044 -35.1764 -35.1300 -34.6979 -34.6388
   -34.5177 -34.5020 -34.4463 -33.3838 -33.3225 -33.1084 -12.3758 -11.0806
    -4.8260  -3.1001  -1.9001  -0.2521   0.1160   1.3140   1.9013   2.5510
     3.4007   3.7096   4.5252   5.5987   6.7036   7.5191   7.8056   8.3285
     8.8657   9.5045  10.0013  10.6882  11.0322  11.5515  12.0190  12.4845
    12.6761  12.7355  13.2784  13.4665  13.7318  14.8397

     occupation numbers 
     1.0000   1.0000   1.0000   1.0000   1.0000   1.0000   1.0000   1.0000
     1.0000   1.0000   1.0000   1.0000   1.0000   1.0000   1.0000   1.0000
     1.0000   1.0000   1.0000   1.0000   1.0000   1.0000  -0.0533   0.0000
     0.0000   0.0000   0.0000   0.0000   0.0000   0.0000   0.0000   0.0000
     0.0000   0.0000   0.0000   0.0000   0.0000   0.0000   0.0000   0.0000
     0.0000   0.0000   0.0000   0.0000   0.0000   0.0000

          k = 0.0000 0.5453 0.0000 ( 16891 PWs)   bands (ev):

   -59.1678 -35.2903 -35.2165 -35.2053 -35.1767 -35.1293 -34.6981 -34.6376
   -34.5182 -34.5021 -34.4454 -33.3818 -33.3289 -33.1098 -12.2934 -10.9917
    -4.9779  -3.2788  -1.8770  -0.2744   0.0889   1.4225   2.0109   2.5979
     3.3569   3.8181   4.4693   5.5829   6.7717   7.2726   7.7687   8.2972
     8.8515   9.6928  10.2920  10.8205  11.1790  11.4863  11.7459  12.3852
    12.5045  12.6314  13.0106  13.4465  13.9147  14.5922

     occupation numbers 
     1.0000   1.0000   1.0000   1.0000   1.0000   1.0000   1.0000   1.0000
     1.0000   1.0000   1.0000   1.0000   1.0000   1.0000   1.0000   1.0000
     1.0000   1.0000   1.0000   1.0000   1.0000   1.0000   0.0000   0.0000
     0.0000   0.0000   0.0000   0.0000   0.0000   0.0000   0.0000   0.0000
     0.0000   0.0000   0.0000   0.0000   0.0000   0.0000   0.0000   0.0000
     0.0000   0.0000   0.0000   0.0000   0.0000   0.0000

          k = 0.0000-0.5774 0.0000 ( 16884 PWs)   bands (ev):

   -59.1675 -35.2904 -35.2160 -35.2055 -35.1767 -35.1290 -34.6981 -34.6371
   -34.5183 -34.5021 -34.4451 -33.3811 -33.3310 -33.1103 -12.2650 -10.9609
    -5.0296  -3.3395  -1.8695  -0.2820   0.0798   1.4620   2.0480   2.6157
     3.3423   3.8587   4.4468   5.5644   6.8677   7.1200   7.7663   8.2882
     8.8142   9.8321  10.4229  10.8051  11.1142  11.5714  11.7878  12.2313
    12.3434  12.5960  12.9435  13.5121  14.1623  14.3917

     occupation numbers 
     1.0000   1.0000   1.0000   1.0000   1.0000   1.0000   1.0000   1.0000
     1.0000   1.0000   1.0000   1.0000   1.0000   1.0000   1.0000   1.0000
     1.0000   1.0000   1.0000   1.0000   1.0000   1.0000   0.0000   0.0000
     0.0000   0.0000   0.0000   0.0000   0.0000   0.0000   0.0000   0.0000
     0.0000   0.0000   0.0000   0.0000   0.0000   0.0000   0.0000   0.0000
     0.0000   0.0000   0.0000   0.0000   0.0000   0.0000

          k = 0.0278 0.0481 0.0000 ( 16871 PWs)   bands (ev):

   -59.1958 -35.2766 -35.2750 -35.1668 -35.1661 -35.1595 -34.6933 -34.6920
   -34.4971 -34.4967 -34.4795 -33.4651 -33.0522 -33.0471 -14.5755 -13.4039
    -3.7856  -1.3539   0.1600   0.6017   0.7473   1.3952   2.0015   2.1434
     5.4493   5.7257   5.7752   5.8986   6.0382   6.0518   7.0453   7.3942
     8.8033   9.4145  10.1567  11.4282  11.7390  11.9592  12.4719  12.5581
    12.6422  13.3276  13.5268  14.2114  14.7138  15.4595

     occupation numbers 
     1.0000   1.0000   1.0000   1.0000   1.0000   1.0000   1.0000   1.0000
     1.0000   1.0000   1.0000   1.0000   1.0000   1.0000   1.0000   1.0000
     1.0000   1.0000   1.0000   1.0000   1.0000   1.0000   0.0000   0.0000
     0.0000   0.0000   0.0000   0.0000   0.0000   0.0000   0.0000   0.0000
     0.0000   0.0000   0.0000   0.0000   0.0000   0.0000   0.0000   0.0000
     0.0000   0.0000   0.0000   0.0000   0.0000   0.0000

          k = 0.0278 0.0802 0.0000 ( 16911 PWs)   bands (ev):

   -59.1949 -35.2769 -35.2733 -35.1681 -35.1664 -35.1586 -34.6934 -34.6904
   -34.4977 -34.4969 -34.4785 -33.4625 -33.0608 -33.0490 -14.5259 -13.3525
    -3.7231  -1.2977   0.1799   0.4520   0.7666   1.3214   1.9786   2.2672
     5.0648   5.2855   5.7761   5.8190   5.9407   6.1003   7.1090   7.4575
     8.8679   9.4886  10.4078  11.2482  11.7519  11.9693  12.3558  12.5540
    12.8304  13.5142  13.8275  14.4053  15.4013  15.4937

     occupation numbers 
     1.0000   1.0000   1.0000   1.0000   1.0000   1.0000   1.0000   1.0000
     1.0000   1.0000   1.0000   1.0000   1.0000   1.0000   1.0000   1.0000
     1.0000   1.0000   1.0000   1.0000   1.0000   1.0000   0.0000   0.0000
     0.0000   0.0000   0.0000   0.0000   0.0000   0.0000   0.0000   0.0000
     0.0000   0.0000   0.0000   0.0000   0.0000   0.0000   0.0000   0.0000
     0.0000   0.0000   0.0000   0.0000   0.0000   0.0000

          k = 0.0278 0.1123 0.0000 ( 16907 PWs)   bands (ev):

   -59.1937 -35.2773 -35.2707 -35.1699 -35.1669 -35.1573 -34.6935 -34.6880
   -34.4987 -34.4971 -34.4771 -33.4587 -33.0734 -33.0519 -14.4522 -13.2758
    -3.6314  -1.2141   0.1531   0.2981   0.7837   1.2405   1.9538   2.4038
     4.4970   4.8112   5.6529   5.7958   5.8789   6.1926   7.2036   7.5422
     8.9620   9.5616  10.5094  11.2103  11.5270  11.8881  12.5650  12.7659
    13.1024  13.4852  14.2298  14.6936  15.3269  15.7331

     occupation numbers 
     1.0000   1.0000   1.0000   1.0000   1.0000   1.0000   1.0000   1.0000
     1.0000   1.0000   1.0000   1.0000   1.0000   1.0000   1.0000   1.0000
     1.0000   1.0000   1.0000   1.0000   1.0000   1.0000   0.0000   0.0000
     0.0000   0.0000   0.0000   0.0000   0.0000   0.0000   0.0000   0.0000
     0.0000   0.0000   0.0000   0.0000   0.0000   0.0000   0.0000   0.0000
     0.0000   0.0000   0.0000   0.0000   0.0000   0.0000

          k = 0.0278 0.1443 0.0000 ( 16916 PWs)   bands (ev):

   -59.1921 -35.2779 -35.2673 -35.1722 -35.1676 -35.1556 -34.6936 -34.6849
   -34.4999 -34.4974 -34.4752 -33.4539 -33.0895 -33.0556 -14.3549 -13.1745
    -3.5132  -1.1041  -0.0787   0.3026   0.7841   1.1645   1.9401   2.5240
     3.8165   4.3929   5.4474   5.6793   5.9734   6.3149   7.3282   7.6479
     9.0828   9.6218  10.3406  11.0979  11.4450  12.0926  12.5371  13.0390
    13.4388  13.5343  14.6043  14.7590  15.3031  15.5312

     occupation numbers 
     1.0000   1.0000   1.0000   1.0000   1.0000   1.0000   1.0000   1.0000
     1.0000   1.0000   1.0000   1.0000   1.0000   1.0000   1.0000   1.0000
     1.0000   1.0000   1.0000   1.0000   1.0000   1.0000   0.0000   0.0000
     0.0000   0.0000   0.0000   0.0000   0.0000   0.0000   0.0000   0.0000
     0.0000   0.0000   0.0000   0.0000   0.0000   0.0000   0.0000   0.0000
     0.0000   0.0000   0.0000   0.0000   0.0000   0.0000

          k = 0.0278 0.1764 0.0000 ( 16926 PWs)   bands (ev):

   -59.1901 -35.2787 -35.2633 -35.1749 -35.1683 -35.1536 -34.6938 -34.6812
   -34.5013 -34.4978 -34.4730 -33.4482 -33.1087 -33.0600 -14.2351 -13.0496
    -3.3720  -0.9703  -0.3995   0.3487   0.7545   1.1002   1.9530   2.5902
     3.0879   4.0847   5.2109   5.5543   6.1042   6.4661   7.4819   7.7745
     9.2239   9.6234  10.1723  10.7203  11.5350  12.3801  12.4845  13.0301
    13.7008  14.0101  14.3268  15.0783  15.2817  15.4800

     occupation numbers 
     1.0000   1.0000   1.0000   1.0000   1.0000   1.0000   1.0000   1.0000
     1.0000   1.0000   1.0000   1.0000   1.0000   1.0000   1.0000   1.0000
     1.0000   1.0000   1.0000   1.0000   1.0000   1.0000   0.0000   0.0000
     0.0000   0.0000   0.0000   0.0000   0.0000   0.0000   0.0000   0.0000
     0.0000   0.0000   0.0000   0.0000   0.0000   0.0000   0.0000   0.0000
     0.0000   0.0000   0.0000   0.0000   0.0000   0.0000

          k = 0.0278 0.2085 0.0000 ( 16927 PWs)   bands (ev):

   -59.1880 -35.2795 -35.2588 -35.1780 -35.1692 -35.1513 -34.6941 -34.6770
   -34.5030 -34.4982 -34.4704 -33.4417 -33.1303 -33.0650 -14.0940 -12.9023
    -3.2132  -0.8486  -0.7396   0.3966   0.6964   1.0437   2.0043   2.3300
     2.5829   3.9416   4.9618   5.4277   6.2622   6.6452   7.6631   7.9209
     9.3559   9.5208  10.1401  10.3817  11.3227  12.4048  12.7244  13.0986
    13.6548  14.2925  14.6139  14.7882  15.2470  15.7501

     occupation numbers 
     1.0000   1.0000   1.0000   1.0000   1.0000   1.0000   1.0000   1.0000
     1.0000   1.0000   1.0000   1.0000   1.0000   1.0000   1.0000   1.0000
     1.0000   1.0000   1.0000   1.0000   1.0000   1.0000  -0.0039   0.0000
     0.0000   0.0000   0.0000   0.0000   0.0000   0.0000   0.0000   0.0000
     0.0000   0.0000   0.0000   0.0000   0.0000   0.0000   0.0000   0.0000
     0.0000   0.0000   0.0000   0.0000   0.0000   0.0000

          k = 0.0278 0.2406 0.0000 ( 16953 PWs)   bands (ev):

   -59.1856 -35.2806 -35.2539 -35.1813 -35.1701 -35.1488 -34.6944 -34.6725
   -34.5047 -34.4987 -34.4676 -33.4347 -33.1536 -33.0704 -13.9336 -12.7343
    -3.0444  -1.2078  -0.6237   0.4321   0.6265   0.9898   1.5895   2.0958
     2.4923   3.9641   4.7116   5.3028   6.4453   6.8506   7.8684   8.0841
     9.2657   9.5530  10.0148  10.2796  10.9231  12.4370  12.6486  13.2194
    13.6753  14.3135  14.6446  15.0117  15.2902  15.6816

     occupation numbers 
     1.0000   1.0000   1.0000   1.0000   1.0000   1.0000   1.0000   1.0000
     1.0000   1.0000   1.0000   1.0000   1.0000   1.0000   1.0000   1.0000
     1.0000   1.0000   1.0000   1.0000   1.0000   1.0000   0.9640   0.0000
     0.0000   0.0000   0.0000   0.0000   0.0000   0.0000   0.0000   0.0000
     0.0000   0.0000   0.0000   0.0000   0.0000   0.0000   0.0000   0.0000
     0.0000   0.0000   0.0000   0.0000   0.0000   0.0000

          k = 0.0278 0.2726 0.0000 ( 16937 PWs)   bands (ev):

   -59.1832 -35.2817 -35.2488 -35.1847 -35.1711 -35.1462 -34.6947 -34.6677
   -34.5066 -34.4992 -34.4646 -33.4274 -33.1780 -33.0761 -13.7561 -12.5481
    -2.8786  -1.6524  -0.4380   0.4380   0.5654   0.8624   0.9482   2.1913
     2.4294   4.0945   4.4686   5.1832   6.6517   7.0801   8.0895   8.2575
     9.0785   9.5712   9.7451  10.3988  10.5839  12.0348  12.7825  13.2133
    13.6177  14.3967  14.5137  15.2287  15.4478  15.8265

     occupation numbers 
     1.0000   1.0000   1.0000   1.0000   1.0000   1.0000   1.0000   1.0000
     1.0000   1.0000   1.0000   1.0000   1.0000   1.0000   1.0000   1.0000
     1.0000   1.0000   1.0000   1.0000   1.0000   1.0000   1.0000   0.0000
     0.0000   0.0000   0.0000   0.0000   0.0000   0.0000   0.0000   0.0000
     0.0000   0.0000   0.0000   0.0000   0.0000   0.0000   0.0000   0.0000
     0.0000   0.0000   0.0000   0.0000   0.0000   0.0000

          k = 0.0278 0.3047 0.0000 ( 16921 PWs)   bands (ev):

   -59.1806 -35.2829 -35.2435 -35.1881 -35.1721 -35.1434 -34.6951 -34.6628
   -34.5084 -34.4997 -34.4616 -33.4200 -33.2026 -33.0818 -13.5644 -12.3465
    -2.7539  -2.0802  -0.2588   0.1606   0.4143   0.5243   0.9373   2.2161
     2.5051   4.2338   4.2860   5.0723   6.8789   7.3299   8.2894   8.4372
     8.9156   9.3618   9.4958  10.4827  10.5538  11.5581  12.8306  13.0678
    13.6060  14.1314  14.8630  15.1077  15.5665  15.8566

     occupation numbers 
     1.0000   1.0000   1.0000   1.0000   1.0000   1.0000   1.0000   1.0000
     1.0000   1.0000   1.0000   1.0000   1.0000   1.0000   1.0000   1.0000
     1.0000   1.0000   1.0000   1.0000   1.0000   1.0000   1.0000   0.0000
     0.0000   0.0000   0.0000   0.0000   0.0000   0.0000   0.0000   0.0000
     0.0000   0.0000   0.0000   0.0000   0.0000   0.0000   0.0000   0.0000
     0.0000   0.0000   0.0000   0.0000   0.0000   0.0000

          k = 0.0278 0.3368 0.0000 ( 16901 PWs)   bands (ev):

   -59.1782 -35.2841 -35.2384 -35.1914 -35.1730 -35.1407 -34.6955 -34.6581
   -34.5103 -34.5002 -34.4585 -33.4127 -33.2268 -33.0874 -13.3626 -12.1335
    -2.8519  -2.3006  -0.5071  -0.1217   0.3893   0.5035   0.9768   2.2166
     2.6768   4.0245   4.4921   4.9777   7.1223   7.5911   8.3711   8.5597
     8.7742   9.1702   9.2953  10.4027  10.7405  11.2558  12.4082  13.2254
    13.7146  13.9064  14.7549  14.9387  15.3753  15.8001

     occupation numbers 
     1.0000   1.0000   1.0000   1.0000   1.0000   1.0000   1.0000   1.0000
     1.0000   1.0000   1.0000   1.0000   1.0000   1.0000   1.0000   1.0000
     1.0000   1.0000   1.0000   1.0000   1.0000   1.0000   1.0000   0.0000
     0.0000   0.0000   0.0000   0.0000   0.0000   0.0000   0.0000   0.0000
     0.0000   0.0000   0.0000   0.0000   0.0000   0.0000   0.0000   0.0000
     0.0000   0.0000   0.0000   0.0000   0.0000   0.0000

          k = 0.0278 0.3689 0.0000 ( 16877 PWs)   bands (ev):

   -59.1758 -35.2854 -35.2335 -35.1946 -35.1739 -35.1382 -34.6960 -34.6535
   -34.5121 -34.5006 -34.4556 -33.4058 -33.2497 -33.0928 -13.1557 -11.9144
    -3.2382  -2.2397  -1.1269  -0.0795   0.3515   0.5693   1.0726   2.2456
     2.8773   3.8327   4.6711   4.9386   7.3703   7.8296   8.1964   8.3843
     8.9349   9.0684   9.3349  10.0920  10.9597  11.2403  12.0124  13.2616
    13.7224  13.9060  14.4018  14.5830  14.9450  15.4388

     occupation numbers 
     1.0000   1.0000   1.0000   1.0000   1.0000   1.0000   1.0000   1.0000
     1.0000   1.0000   1.0000   1.0000   1.0000   1.0000   1.0000   1.0000
     1.0000   1.0000   1.0000   1.0000   1.0000   1.0000   1.0000   0.0000
     0.0000   0.0000   0.0000   0.0000   0.0000   0.0000   0.0000   0.0000
     0.0000   0.0000   0.0000   0.0000   0.0000   0.0000   0.0000   0.0000
     0.0000   0.0000   0.0000   0.0000   0.0000   0.0000

          k = 0.0278 0.4009 0.0000 ( 16899 PWs)   bands (ev):

   -59.1736 -35.2865 -35.2290 -35.1974 -35.1747 -35.1358 -34.6964 -34.6493
   -34.5137 -34.5010 -34.4529 -33.3993 -33.2708 -33.0978 -12.9501 -11.6960
    -3.6684  -2.1324  -1.6933  -0.1079   0.2896   0.7213   1.2230   2.3016
     3.0859   3.6643   4.6911   5.0719   7.5614   7.7186   8.0987   8.4108
     8.8648   9.1392   9.5416   9.8366  10.9702  11.4064  11.8597  13.1232
    13.4979  13.8861  14.0358  14.4982  14.5689  15.0897

     occupation numbers 
     1.0000   1.0000   1.0000   1.0000   1.0000   1.0000   1.0000   1.0000
     1.0000   1.0000   1.0000   1.0000   1.0000   1.0000   1.0000   1.0000
     1.0000   1.0000   1.0000   1.0000   1.0000   1.0000   1.0000   0.0000
     0.0000   0.0000   0.0000   0.0000   0.0000   0.0000   0.0000   0.0000
     0.0000   0.0000   0.0000   0.0000   0.0000   0.0000   0.0000   0.0000
     0.0000   0.0000   0.0000   0.0000   0.0000   0.0000

          k = 0.0278 0.4330 0.0000 ( 16904 PWs)   bands (ev):

   -59.1717 -35.2876 -35.2250 -35.1999 -35.1755 -35.1337 -34.6968 -34.6456
   -34.5151 -34.5014 -34.4505 -33.3936 -33.2894 -33.1021 -12.7539 -11.4866
    -4.0718  -2.1983  -2.0342  -0.1613   0.2249   0.9007   1.4149   2.3730
     3.2910   3.5218   4.6275   5.2873   7.2553   7.7642   8.2055   8.4910
     8.7142   9.1284   9.7576   9.9436  10.7470  11.6777  11.9744  12.9181
    13.0235  13.5984  13.7497  14.3347  14.6051  14.8088

     occupation numbers 
     1.0000   1.0000   1.0000   1.0000   1.0000   1.0000   1.0000   1.0000
     1.0000   1.0000   1.0000   1.0000   1.0000   1.0000   1.0000   1.0000
     1.0000   1.0000   1.0000   1.0000   1.0000   1.0000   1.0000   0.0000
     0.0000   0.0000   0.0000   0.0000   0.0000   0.0000   0.0000   0.0000
     0.0000   0.0000   0.0000   0.0000   0.0000   0.0000   0.0000   0.0000
     0.0000   0.0000   0.0000   0.0000   0.0000   0.0000

          k = 0.0278 0.4651 0.0000 ( 16902 PWs)   bands (ev):

   -59.1701 -35.2885 -35.2217 -35.2020 -35.1760 -35.1319 -34.6972 -34.6424
   -34.5163 -34.5017 -34.4484 -33.3888 -33.3051 -33.1058 -12.5766 -11.2967
    -4.4235  -2.6227  -1.9621  -0.2156   0.1668   1.0819   1.6215   2.4486
     3.4023   3.4868   4.5544   5.4841   6.9264   7.7920   8.1255   8.5379
     8.6485   9.2733   9.8622  10.2292  10.6761  11.8812  12.1518  12.4939
    12.8111  13.1290  13.5973  13.9483  14.1861  14.7715

     occupation numbers 
     1.0000   1.0000   1.0000   1.0000   1.0000   1.0000   1.0000   1.0000
     1.0000   1.0000   1.0000   1.0000   1.0000   1.0000   1.0000   1.0000
     1.0000   1.0000   1.0000   1.0000   1.0000   1.0000   1.0039   0.0000
     0.0000   0.0000   0.0000   0.0000   0.0000   0.0000   0.0000   0.0000
     0.0000   0.0000   0.0000   0.0000   0.0000   0.0000   0.0000   0.0000
     0.0000   0.0000   0.0000   0.0000   0.0000   0.0000

          k = 0.0278 0.4972 0.0000 ( 16902 PWs)   bands (ev):

   -59.1688 -35.2892 -35.2191 -35.2037 -35.1765 -35.1305 -34.6975 -34.6400
   -34.5173 -34.5020 -34.4468 -33.3850 -33.3172 -33.1086 -12.4292 -11.1383
    -4.7058  -2.9589  -1.9109  -0.2608   0.1201   1.2491   1.8099   2.5193
     3.3161   3.6541   4.4836   5.6049   6.7397   7.7003   7.9096   8.4879
     8.8240   9.4559   9.9039  10.5513  10.8923  11.7257  12.1353  12.3457
    12.7164  12.8120  13.4452  13.5945  13.7398  14.6882

     occupation numbers 
     1.0000   1.0000   1.0000   1.0000   1.0000   1.0000   1.0000   1.0000
     1.0000   1.0000   1.0000   1.0000   1.0000   1.0000   1.0000   1.0000
     1.0000   1.0000   1.0000   1.0000   1.0000   1.0000   0.4988   0.0000
     0.0000   0.0000   0.0000   0.0000   0.0000   0.0000   0.0000   0.0000
     0.0000   0.0000   0.0000   0.0000   0.0000   0.0000   0.0000   0.0000
     0.0000   0.0000   0.0000   0.0000   0.0000   0.0000

          k = 0.0278 0.5292 0.0000 ( 16898 PWs)   bands (ev):

   -59.1680 -35.2897 -35.2174 -35.2048 -35.1768 -35.1296 -34.6977 -34.6383
   -34.5179 -34.5021 -34.4458 -33.3824 -33.3256 -33.1106 -12.3229 -11.0236
    -4.9038  -3.1926  -1.8791  -0.2924   0.0876   1.3824   1.9503   2.5771
     3.2572   3.7869   4.4217   5.6197   6.7387   7.4332   7.8643   8.4461
     8.8884   9.5975  10.1563  10.8070  11.1567  11.4562  11.8615  12.3070
    12.5599  12.7238  13.1694  13.4284  13.7416  14.5623

     occupation numbers 
     1.0000   1.0000   1.0000   1.0000   1.0000   1.0000   1.0000   1.0000
     1.0000   1.0000   1.0000   1.0000   1.0000   1.0000   1.0000   1.0000
     1.0000   1.0000   1.0000   1.0000   1.0000   1.0000   0.0000   0.0000
     0.0000   0.0000   0.0000   0.0000   0.0000   0.0000   0.0000   0.0000
     0.0000   0.0000   0.0000   0.0000   0.0000   0.0000   0.0000   0.0000
     0.0000   0.0000   0.0000   0.0000   0.0000   0.0000

          k = 0.0278 0.5613 0.0000 ( 16889 PWs)   bands (ev):

   -59.1675 -35.2900 -35.2165 -35.2053 -35.1769 -35.1291 -34.6978 -34.6375
   -34.5182 -34.5022 -34.4452 -33.3810 -33.3299 -33.1116 -12.2670 -10.9632
    -5.0061  -3.3126  -1.8640  -0.3086   0.0710   1.4579   2.0234   2.6112
     3.2275   3.8644   4.3814   5.5905   6.8568   7.1901   7.8646   8.4279
     8.8362   9.8020  10.4047  10.8090  11.1575  11.5547  11.7511  12.2296
    12.3824  12.4666  13.0639  13.4889  13.9872  14.4000

     occupation numbers 
     1.0000   1.0000   1.0000   1.0000   1.0000   1.0000   1.0000   1.0000
     1.0000   1.0000   1.0000   1.0000   1.0000   1.0000   1.0000   1.0000
     1.0000   1.0000   1.0000   1.0000   1.0000   1.0000   0.0000   0.0000
     0.0000   0.0000   0.0000   0.0000   0.0000   0.0000   0.0000   0.0000
     0.0000   0.0000   0.0000   0.0000   0.0000   0.0000   0.0000   0.0000
     0.0000   0.0000   0.0000   0.0000   0.0000   0.0000

          k = 0.0556 0.0962 0.0000 ( 16919 PWs)   bands (ev):

   -59.1939 -35.2772 -35.2711 -35.1696 -35.1669 -35.1575 -34.6934 -34.6884
   -34.4985 -34.4971 -34.4773 -33.4594 -33.0712 -33.0515 -14.4644 -13.2885
    -3.6465  -1.2279   0.1767   0.3105   0.7637   1.2688   1.9438   2.3938
     4.6034   4.8867   5.6511   5.7814   5.8811   6.1776   7.1881   7.5302
     8.9469   9.5584  10.6329  11.0884  11.7730  11.8485  12.4188  12.5653
    13.0625  13.4930  14.3040  14.6813  15.3628  15.7156

     occupation numbers 
     1.0000   1.0000   1.0000   1.0000   1.0000   1.0000   1.0000   1.0000
     1.0000   1.0000   1.0000   1.0000   1.0000   1.0000   1.0000   1.0000
     1.0000   1.0000   1.0000   1.0000   1.0000   1.0000   0.0000   0.0000
     0.0000   0.0000   0.0000   0.0000   0.0000   0.0000   0.0000   0.0000
     0.0000   0.0000   0.0000   0.0000   0.0000   0.0000   0.0000   0.0000
     0.0000   0.0000   0.0000   0.0000   0.0000   0.0000

          k = 0.0556 0.1283 0.0000 ( 16911 PWs)   bands (ev):

   -59.1925 -35.2776 -35.2683 -35.1716 -35.1675 -35.1560 -34.6935 -34.6857
   -34.4996 -34.4974 -34.4757 -33.4551 -33.0853 -33.0550 -14.3791 -13.1997
    -3.5422  -1.1312   0.0091   0.2853   0.7321   1.2345   1.9074   2.5267
     4.0108   4.4891   5.4318   5.6529   5.9594   6.2850   7.2976   7.6266
     9.0544   9.6359  10.6132  11.1909  11.4917  11.9224  12.5296  12.7250
    13.2540  13.4592  14.7733  14.8807  15.2733  15.4377

     occupation numbers 
     1.0000   1.0000   1.0000   1.0000   1.0000   1.0000   1.0000   1.0000
     1.0000   1.0000   1.0000   1.0000   1.0000   1.0000   1.0000   1.0000
     1.0000   1.0000   1.0000   1.0000   1.0000   1.0000   0.0000   0.0000
     0.0000   0.0000   0.0000   0.0000   0.0000   0.0000   0.0000   0.0000
     0.0000   0.0000   0.0000   0.0000   0.0000   0.0000   0.0000   0.0000
     0.0000   0.0000   0.0000   0.0000   0.0000   0.0000

          k = 0.0556 0.1604 0.0000 ( 16916 PWs)   bands (ev):

   -59.1907 -35.2782 -35.2647 -35.1741 -35.1682 -35.1542 -34.6936 -34.6824
   -34.5009 -34.4977 -34.4736 -33.4499 -33.1026 -33.0593 -14.2708 -13.0868
    -3.4132  -1.0088  -0.2708   0.3226   0.6685   1.2152   1.8891   2.6350
     3.3415   4.1504   5.1713   5.5124   6.0768   6.4216   7.4367   7.7457
     9.1865   9.7067  10.4131  11.1419  11.4487  12.0815  12.4638  12.9940
    13.3265  13.6512  14.5311  14.9273  15.3296  15.6426

     occupation numbers 
     1.0000   1.0000   1.0000   1.0000   1.0000   1.0000   1.0000   1.0000
     1.0000   1.0000   1.0000   1.0000   1.0000   1.0000   1.0000   1.0000
     1.0000   1.0000   1.0000   1.0000   1.0000   1.0000   0.0000   0.0000
     0.0000   0.0000   0.0000   0.0000   0.0000   0.0000   0.0000   0.0000
     0.0000   0.0000   0.0000   0.0000   0.0000   0.0000   0.0000   0.0000
     0.0000   0.0000   0.0000   0.0000   0.0000   0.0000

          k = 0.0556 0.1925 0.0000 ( 16940 PWs)   bands (ev):

   -59.1887 -35.2789 -35.2606 -35.1769 -35.1690 -35.1521 -34.6937 -34.6786
   -34.5024 -34.4982 -34.4712 -33.4438 -33.1225 -33.0642 -14.1406 -12.9510
    -3.2639  -0.8660  -0.6069   0.3650   0.5854   1.1887   1.9104   2.6170
     2.6970   3.9346   4.8946   5.3717   6.2225   6.5867   7.6041   7.8869
     9.3341   9.7267  10.2595  10.8183  11.4325  12.2962  12.4872  13.0534
    13.5382  13.8439  14.3243  14.6086  15.3960  15.8797

     occupation numbers 
     1.0000   1.0000   1.0000   1.0000   1.0000   1.0000   1.0000   1.0000
     1.0000   1.0000   1.0000   1.0000   1.0000   1.0000   1.0000   1.0000
     1.0000   1.0000   1.0000   1.0000   1.0000   1.0000   0.0000   0.0000
     0.0000   0.0000   0.0000   0.0000   0.0000   0.0000   0.0000   0.0000
     0.0000   0.0000   0.0000   0.0000   0.0000   0.0000   0.0000   0.0000
     0.0000   0.0000   0.0000   0.0000   0.0000   0.0000

          k = 0.0556 0.2245 0.0000 ( 16932 PWs)   bands (ev):

   -59.1864 -35.2797 -35.2561 -35.1800 -35.1700 -35.1497 -34.6939 -34.6744
   -34.5040 -34.4986 -34.4686 -33.4372 -33.1445 -33.0697 -13.9902 -12.7937
    -3.1008  -1.0111  -0.6839   0.3932   0.5048   1.1424   1.8998   1.9881
     2.6456   3.8838   4.6166   5.2371   6.3944   6.7790   7.7979   8.0489
     9.4628   9.6482  10.2415  10.5192  11.1125  12.4525  12.6225  13.1382
    13.3759  14.0701  14.3306  14.5873  15.1547  15.9124

     occupation numbers 
     1.0000   1.0000   1.0000   1.0000   1.0000   1.0000   1.0000   1.0000
     1.0000   1.0000   1.0000   1.0000   1.0000   1.0000   1.0000   1.0000
     1.0000   1.0000   1.0000   1.0000   1.0000   1.0000   0.3447   0.0000
     0.0000   0.0000   0.0000   0.0000   0.0000   0.0000   0.0000   0.0000
     0.0000   0.0000   0.0000   0.0000   0.0000   0.0000   0.0000   0.0000
     0.0000   0.0000   0.0000   0.0000   0.0000   0.0000

          k = 0.0556 0.2566 0.0000 ( 16921 PWs)   bands (ev):

[...]
     1.0000   1.0000   1.0000   1.0000   1.0000   1.0000   1.0000   1.0000
     0.0000   0.0000   0.0000   0.0000   0.0000   0.0000   0.0000   0.0000
     0.0000   0.0000   0.0000   0.0000   0.0000   0.0000   0.0000   0.0000
     0.0000   0.0000   0.0000   0.0000   0.0000   0.0000

          k = 0.2222 0.4170 0.0000 ( 16833 PWs)   bands (ev):

   -59.1689 -35.2732 -35.2345 -35.1975 -35.1822 -35.1321 -34.6835 -34.6528
   -34.5140 -34.5052 -34.4483 -33.3839 -33.2742 -33.1531 -12.4835 -11.1990
    -3.7281  -1.9461  -1.8096  -1.4825   0.5997   0.6727   0.8339   1.2589
     2.6514   2.7746   4.1370   6.1023   7.5704   8.5722   8.7625   9.0440
     9.7423  10.2760  10.4466  10.6961  11.2973  12.1079  12.3025  12.6125
    12.8389  13.4644  13.7023  14.2174  14.5122  14.6953

     occupation numbers 
     1.0000   1.0000   1.0000   1.0000   1.0000   1.0000   1.0000   1.0000
     1.0000   1.0000   1.0000   1.0000   1.0000   1.0000   1.0000   1.0000
     1.0000   1.0000   1.0000   1.0000   1.0000   1.0000   1.0000   1.0000
     0.0000   0.0000   0.0000   0.0000   0.0000   0.0000   0.0000   0.0000
     0.0000   0.0000   0.0000   0.0000   0.0000   0.0000   0.0000   0.0000
     0.0000   0.0000   0.0000   0.0000   0.0000   0.0000

          k = 0.2222 0.4491 0.0000 ( 16851 PWs)   bands (ev):

   -59.1675 -35.2718 -35.2336 -35.1982 -35.1835 -35.1310 -34.6818 -34.6519
   -34.5145 -34.5060 -34.4468 -33.3794 -33.2808 -33.1634 -12.3270 -11.0311
    -3.9355  -2.0836  -2.0530  -1.4871   0.3679   0.5940   0.9459   1.4386
     2.5768   2.8097   4.3425   6.3980   7.2737   8.4485   8.9552   9.0239
     9.8619  10.1491  10.7276  10.8052  11.1204  12.0801  12.5602  12.6998
    12.9109  13.3381  13.5169  14.0447  14.4043  14.6349

     occupation numbers 
     1.0000   1.0000   1.0000   1.0000   1.0000   1.0000   1.0000   1.0000
     1.0000   1.0000   1.0000   1.0000   1.0000   1.0000   1.0000   1.0000
     1.0000   1.0000   1.0000   1.0000   1.0000   1.0000   1.0000   1.0000
     0.0000   0.0000   0.0000   0.0000   0.0000   0.0000   0.0000   0.0000
     0.0000   0.0000   0.0000   0.0000   0.0000   0.0000   0.0000   0.0000
     0.0000   0.0000   0.0000   0.0000   0.0000   0.0000

          k = 0.2222 0.4811 0.0000 ( 16860 PWs)   bands (ev):

   -59.1664 -35.2706 -35.2329 -35.1987 -35.1847 -35.1302 -34.6804 -34.6512
   -34.5148 -34.5067 -34.4457 -33.3756 -33.2857 -33.1722 -12.1931 -10.8869
    -4.1155  -2.2899  -2.1941  -1.4632   0.1348   0.5758   1.0615   1.6122
     2.5120   2.8479   4.5366   6.6042   7.0700   8.1932   8.8618   9.3399
     9.8227  10.2954  10.6216  11.0998  11.3360  11.9501  12.5807  12.6885
    13.0116  13.2624  13.4905  13.6027  14.2520  14.4305

     occupation numbers 
     1.0000   1.0000   1.0000   1.0000   1.0000   1.0000   1.0000   1.0000
     1.0000   1.0000   1.0000   1.0000   1.0000   1.0000   1.0000   1.0000
     1.0000   1.0000   1.0000   1.0000   1.0000   1.0000   1.0000   1.0000
     0.0000   0.0000   0.0000   0.0000   0.0000   0.0000   0.0000   0.0000
     0.0000   0.0000   0.0000   0.0000   0.0000   0.0000   0.0000   0.0000
     0.0000   0.0000   0.0000   0.0000   0.0000   0.0000

          k = 0.2222 0.5132 0.0000 ( 16855 PWs)   bands (ev):

   -59.1656 -35.2698 -35.2324 -35.1991 -35.1855 -35.1296 -34.6793 -34.6507
   -34.5151 -34.5072 -34.4448 -33.3728 -33.2892 -33.1790 -12.0899 -10.7754
    -4.2555  -2.4576  -2.2949  -1.4406  -0.0296   0.5598   1.1584   1.7581
     2.4745   2.8699   4.7067   6.5251   7.1572   7.9975   8.7259   9.4648
     9.9505  10.3005  10.7132  11.3902  11.6919  11.8825  12.1971  12.6506
    12.8934  13.3316  13.4481  13.5945  13.9505  14.0381

     occupation numbers 
     1.0000   1.0000   1.0000   1.0000   1.0000   1.0000   1.0000   1.0000
     1.0000   1.0000   1.0000   1.0000   1.0000   1.0000   1.0000   1.0000
     1.0000   1.0000   1.0000   1.0000   1.0000   1.0000   1.0000   0.9326
     0.0000   0.0000   0.0000   0.0000   0.0000   0.0000   0.0000   0.0000
     0.0000   0.0000   0.0000   0.0000   0.0000   0.0000   0.0000   0.0000
     0.0000   0.0000   0.0000   0.0000   0.0000   0.0000

          k = 0.2222 0.5453 0.0000 ( 16847 PWs)   bands (ev):

   -59.1651 -35.2693 -35.2321 -35.1992 -35.1861 -35.1293 -34.6786 -34.6504
   -34.5152 -34.5075 -34.4443 -33.3710 -33.2912 -33.1832 -12.0246 -10.7047
    -4.3447  -2.5640  -2.3568  -1.4264  -0.1271   0.5495   1.2217   1.8568
     2.4590   2.8780   4.8315   6.3664   7.3172   7.8975   8.6057   9.4170
    10.0740  10.3648  11.0186  11.5069  11.6144  12.0866  12.2047  12.4288
    12.7359  13.1452  13.3096  13.4415  13.9793  14.1633

     occupation numbers 
     1.0000   1.0000   1.0000   1.0000   1.0000   1.0000   1.0000   1.0000
     1.0000   1.0000   1.0000   1.0000   1.0000   1.0000   1.0000   1.0000
     1.0000   1.0000   1.0000   1.0000   1.0000   1.0000   1.0000   0.0393
     0.0000   0.0000   0.0000   0.0000   0.0000   0.0000   0.0000   0.0000
     0.0000   0.0000   0.0000   0.0000   0.0000   0.0000   0.0000   0.0000
     0.0000   0.0000   0.0000   0.0000   0.0000   0.0000

          k = 0.2222 0.5774 0.0000 ( 16842 PWs)   bands (ev):

   -59.1649 -35.2691 -35.2320 -35.1993 -35.1862 -35.1292 -34.6784 -34.6503
   -34.5153 -34.5076 -34.4441 -33.3704 -33.2918 -33.1847 -12.0022 -10.6805
    -4.3754  -2.6005  -2.3775  -1.4216  -0.1594   0.5459   1.2436   1.8920
     2.4556   2.8792   4.8792   6.3009   7.3755   7.8796   8.5539   9.3884
    10.0270  10.5815  11.1234  11.3281  11.7550  11.9594  12.3752  12.4971
    12.7871  12.9222  12.9863  13.4335  14.1501  14.1900

     occupation numbers 
     1.0000   1.0000   1.0000   1.0000   1.0000   1.0000   1.0000   1.0000
     1.0000   1.0000   1.0000   1.0000   1.0000   1.0000   1.0000   1.0000
     1.0000   1.0000   1.0000   1.0000   1.0000   1.0000   1.0000   0.0000
     0.0000   0.0000   0.0000   0.0000   0.0000   0.0000   0.0000   0.0000
     0.0000   0.0000   0.0000   0.0000   0.0000   0.0000   0.0000   0.0000
     0.0000   0.0000   0.0000   0.0000   0.0000   0.0000

          k = 0.2500 0.4330 0.0000 ( 16833 PWs)   bands (ev):

   -59.1675 -35.2709 -35.2345 -35.1979 -35.1838 -35.1311 -34.6811 -34.6526
   -34.5143 -34.5062 -34.4469 -33.3794 -33.2784 -33.1658 -12.3289 -11.0332
    -3.8739  -2.1336  -1.9938  -1.4937   0.2601   0.6825   0.8469   1.4372
     2.5946   2.7532   4.3531   6.4161   7.3446   8.4432   8.9285   9.0046
     9.9498  10.0321  10.7233  10.7890  11.1720  12.0474  12.6037  12.7815
    13.0718  13.5503  13.7969  14.2166  14.2656  14.5515

     occupation numbers 
     1.0000   1.0000   1.0000   1.0000   1.0000   1.0000   1.0000   1.0000
     1.0000   1.0000   1.0000   1.0000   1.0000   1.0000   1.0000   1.0000
     1.0000   1.0000   1.0000   1.0000   1.0000   1.0000   1.0000   1.0000
     0.0000   0.0000   0.0000   0.0000   0.0000   0.0000   0.0000   0.0000
     0.0000   0.0000   0.0000   0.0000   0.0000   0.0000   0.0000   0.0000
     0.0000   0.0000   0.0000   0.0000   0.0000   0.0000

          k = 0.2500 0.4651 0.0000 ( 16858 PWs)   bands (ev):

   -59.1664 -35.2689 -35.2346 -35.1981 -35.1854 -35.1303 -34.6787 -34.6527
   -34.5145 -34.5071 -34.4457 -33.3755 -33.2809 -33.1776 -12.1924 -10.8863
    -3.9989  -2.3436  -2.1485  -1.4583  -0.0805   0.6964   0.9291   1.6114
     2.4883   2.7962   4.5638   6.6947   7.1428   8.1462   8.8691   9.3106
     9.7645  10.2448  10.6879  11.0953  11.2961  11.8650  12.8235  12.9723
    13.1729  13.3987  13.7445  14.0092  14.3506  14.4612

     occupation numbers 
     1.0000   1.0000   1.0000   1.0000   1.0000   1.0000   1.0000   1.0000
     1.0000   1.0000   1.0000   1.0000   1.0000   1.0000   1.0000   1.0000
     1.0000   1.0000   1.0000   1.0000   1.0000   1.0000   1.0000   1.0000
     0.0000   0.0000   0.0000   0.0000   0.0000   0.0000   0.0000   0.0000
     0.0000   0.0000   0.0000   0.0000   0.0000   0.0000   0.0000   0.0000
     0.0000   0.0000   0.0000   0.0000   0.0000   0.0000

          k = 0.2500 0.4972 0.0000 ( 16856 PWs)   bands (ev):

   -59.1655 -35.2671 -35.2348 -35.1981 -35.1866 -35.1297 -34.6767 -34.6529
   -34.5145 -34.5079 -34.4449 -33.3724 -33.2821 -33.1876 -12.0814 -10.7666
    -4.0991  -2.5197  -2.2704  -1.4230  -0.3419   0.6851   1.0284   1.7641
     2.4134   2.8241   4.7583   6.7213   7.1711   7.9221   8.7564   9.3662
     9.8708  10.3731  10.6529  11.3610  11.6281  11.8240  12.5339  13.0086
    13.2701  13.4541  13.6098  13.8224  14.2661  14.3497

     occupation numbers 
     1.0000   1.0000   1.0000   1.0000   1.0000   1.0000   1.0000   1.0000
     1.0000   1.0000   1.0000   1.0000   1.0000   1.0000   1.0000   1.0000
     1.0000   1.0000   1.0000   1.0000   1.0000   1.0000   1.0000   0.8768
     0.0000   0.0000   0.0000   0.0000   0.0000   0.0000   0.0000   0.0000
     0.0000   0.0000   0.0000   0.0000   0.0000   0.0000   0.0000   0.0000
     0.0000   0.0000   0.0000   0.0000   0.0000   0.0000

          k = 0.2500 0.5292 0.0000 ( 16847 PWs)   bands (ev):

   -59.1649 -35.2659 -35.2350 -35.1980 -35.1876 -35.1294 -34.6753 -34.6532
   -34.5145 -34.5084 -34.4443 -33.3702 -33.2823 -33.1950 -12.0028 -10.6816
    -4.1698  -2.6430  -2.3555  -1.3979  -0.5185   0.6742   1.1060   1.8795
     2.3710   2.8359   4.9198   6.5485   7.3615   7.8134   8.6004   9.3344
     9.9729  10.3661  10.9705  11.4767  11.8097  12.0273  12.3089  12.7445
    13.1309  13.4663  13.6076  13.7417  14.1234  14.1699

     occupation numbers 
     1.0000   1.0000   1.0000   1.0000   1.0000   1.0000   1.0000   1.0000
     1.0000   1.0000   1.0000   1.0000   1.0000   1.0000   1.0000   1.0000
     1.0000   1.0000   1.0000   1.0000   1.0000   1.0000   1.0000  -0.0147
     0.0000   0.0000   0.0000   0.0000   0.0000   0.0000   0.0000   0.0000
     0.0000   0.0000   0.0000   0.0000   0.0000   0.0000   0.0000   0.0000
     0.0000   0.0000   0.0000   0.0000   0.0000   0.0000

          k = 0.2500 0.5613 0.0000 ( 16833 PWs)   bands (ev):

   -59.1646 -35.2652 -35.2351 -35.1980 -35.1881 -35.1292 -34.6745 -34.6533
   -34.5145 -34.5087 -34.4440 -33.3691 -33.2822 -33.1990 -11.9620 -10.6374
    -4.2065  -2.7060  -2.3994  -1.3852  -0.6074   0.6683   1.1473   1.9425
     2.3535   2.8383   5.0178   6.4259   7.4474   7.8301   8.4702   9.3821
     9.7781  10.6940  11.1467  11.4683  11.7188  12.1541  12.4937  12.6175
    13.0712  13.1483  13.3680  13.6680  14.1619  14.4054

     occupation numbers 
     1.0000   1.0000   1.0000   1.0000   1.0000   1.0000   1.0000   1.0000
     1.0000   1.0000   1.0000   1.0000   1.0000   1.0000   1.0000   1.0000
     1.0000   1.0000   1.0000   1.0000   1.0000   1.0000   1.0000   0.0000
     0.0000   0.0000   0.0000   0.0000   0.0000   0.0000   0.0000   0.0000
     0.0000   0.0000   0.0000   0.0000   0.0000   0.0000   0.0000   0.0000
     0.0000   0.0000   0.0000   0.0000   0.0000   0.0000

          k = 0.2778 0.4811 0.0000 ( 16857 PWs)   bands (ev):

   -59.1655 -35.2661 -35.2357 -35.1977 -35.1871 -35.1298 -34.6757 -34.6538
   -34.5143 -34.5081 -34.4449 -33.3722 -33.2793 -33.1909 -12.0786 -10.7637
    -4.0332  -2.6087  -2.1918  -1.4157  -0.4634   0.7609   0.9515   1.7666
     2.3890   2.8111   4.7755   6.8120   7.1776   7.8438   8.8467   9.2561
     9.8504  10.4539  10.6197  11.3173  11.5827  11.7988  12.7819  13.0423
    13.3861  13.5180  13.6738  13.9436  14.1805  14.5172

     occupation numbers 
     1.0000   1.0000   1.0000   1.0000   1.0000   1.0000   1.0000   1.0000
     1.0000   1.0000   1.0000   1.0000   1.0000   1.0000   1.0000   1.0000
     1.0000   1.0000   1.0000   1.0000   1.0000   1.0000   1.0000   0.8569
     0.0000   0.0000   0.0000   0.0000   0.0000   0.0000   0.0000   0.0000
     0.0000   0.0000   0.0000   0.0000   0.0000   0.0000   0.0000   0.0000
     0.0000   0.0000   0.0000   0.0000   0.0000   0.0000

          k = 0.2778 0.5132 0.0000 ( 16842 PWs)   bands (ev):

   -59.1648 -35.2638 -35.2367 -35.1972 -35.1885 -35.1294 -34.6731 -34.6550
   -34.5141 -34.5090 -34.4443 -33.3698 -33.2764 -33.2024 -11.9919 -10.6700
    -4.0433  -2.8269  -2.2028  -1.3806  -0.7644   0.7793   1.0077   1.8914
     2.3170   2.8198   4.9641   6.6948   7.4029   7.6349   8.7869   9.0894
    10.0491  10.3847  10.8811  11.3443  11.9262  12.0414  12.5083  12.9615
    13.1612  13.5920  13.7881  13.9201  14.1150  14.3453

     occupation numbers 
     1.0000   1.0000   1.0000   1.0000   1.0000   1.0000   1.0000   1.0000
     1.0000   1.0000   1.0000   1.0000   1.0000   1.0000   1.0000   1.0000
     1.0000   1.0000   1.0000   1.0000   1.0000   1.0000   1.0000  -0.0336
     0.0000   0.0000   0.0000   0.0000   0.0000   0.0000   0.0000   0.0000
     0.0000   0.0000   0.0000   0.0000   0.0000   0.0000   0.0000   0.0000
     0.0000   0.0000   0.0000   0.0000   0.0000   0.0000

          k = 0.2778 0.5453 0.0000 ( 16831 PWs)   bands (ev):

   -59.1644 -35.2623 -35.2375 -35.1968 -35.1896 -35.1292 -34.6711 -34.6561
   -34.5138 -34.5096 -34.4439 -33.3683 -33.2735 -33.2106 -11.9375 -10.6112
    -4.0393  -2.9729  -2.1954  -1.3586  -0.9623   0.7808   1.0561   1.9735
     2.2766   2.8208   5.1048   6.5639   7.4479   7.6872   8.5896   9.1835
     9.8220  10.7129  10.9602  11.5696  11.8732  12.3043  12.5802  12.7583
    12.9764  13.4464  13.6257  13.7725  14.1376  14.3287

     occupation numbers 
     1.0000   1.0000   1.0000   1.0000   1.0000   1.0000   1.0000   1.0000
     1.0000   1.0000   1.0000   1.0000   1.0000   1.0000   1.0000   1.0000
     1.0000   1.0000   1.0000   1.0000   1.0000   1.0000   1.0000   0.0000
     0.0000   0.0000   0.0000   0.0000   0.0000   0.0000   0.0000   0.0000
     0.0000   0.0000   0.0000   0.0000   0.0000   0.0000   0.0000   0.0000
     0.0000   0.0000   0.0000   0.0000   0.0000   0.0000

          k = 0.2778 0.5774 0.0000 ( 16822 PWs)   bands (ev):

   -59.1642 -35.2617 -35.2378 -35.1966 -35.1900 -35.1292 -34.6704 -34.6565
   -34.5137 -34.5099 -34.4438 -33.3678 -33.2722 -33.2137 -11.9189 -10.5911
    -4.0355  -3.0249  -2.1893  -1.3511  -1.0325   0.7804   1.0740   2.0025
     2.2638   2.8201   5.1595   6.5084   7.4160   7.7819   8.4832   9.3108
     9.6388  10.9427  10.9732  11.5505  11.9190  12.2596  12.7086  12.7553
    13.0665  13.2527  13.3837  13.6804  14.1397  14.4251

     occupation numbers 
     1.0000   1.0000   1.0000   1.0000   1.0000   1.0000   1.0000   1.0000
     1.0000   1.0000   1.0000   1.0000   1.0000   1.0000   1.0000   1.0000
     1.0000   1.0000   1.0000   1.0000   1.0000   1.0000   1.0000   0.0000
     0.0000   0.0000   0.0000   0.0000   0.0000   0.0000   0.0000   0.0000
     0.0000   0.0000   0.0000   0.0000   0.0000   0.0000   0.0000   0.0000
     0.0000   0.0000   0.0000   0.0000   0.0000   0.0000

          k = 0.3056 0.5292 0.0000 ( 16819 PWs)   bands (ev):

   -59.1643 -35.2611 -35.2385 -35.1962 -35.1903 -35.1292 -34.6697 -34.6574
   -34.5135 -34.5100 -34.4439 -33.3680 -33.2696 -33.2155 -11.9292 -10.6023
    -3.9572  -3.0890  -2.0912  -1.3491  -1.1170   0.8430   1.0024   1.9839
     2.2483   2.8159   5.1342   6.6371   7.3938   7.6569   8.6997   9.0307
     9.8981  10.6951  10.8619  11.5648  12.1113  12.2708  12.5761  12.7708
    13.0662  13.3120  13.8146  13.8867  14.2146  14.2460

     occupation numbers 
     1.0000   1.0000   1.0000   1.0000   1.0000   1.0000   1.0000   1.0000
     1.0000   1.0000   1.0000   1.0000   1.0000   1.0000   1.0000   1.0000
     1.0000   1.0000   1.0000   1.0000   1.0000   1.0000   1.0000   0.0000
     0.0000   0.0000   0.0000   0.0000   0.0000   0.0000   0.0000   0.0000
     0.0000   0.0000   0.0000   0.0000   0.0000   0.0000   0.0000   0.0000
     0.0000   0.0000   0.0000   0.0000   0.0000   0.0000

          k = 0.3056 0.5613 0.0000 ( 16817 PWs)   bands (ev):

   -59.1640 -35.2594 -35.2397 -35.1953 -35.1915 -35.1292 -34.6671 -34.6594
   -34.5129 -34.5108 -34.4437 -33.3671 -33.2640 -33.2244 -11.8970 -10.5675
    -3.8756  -3.2610  -1.9746  -1.3557  -1.3322   0.8706   1.0070   2.0331
     2.2133   2.8123   5.2362   6.5924   7.2717   7.8433   8.4854   9.2380
     9.6549  10.7375  11.0904  11.7749  12.0147  12.3987  12.5228  12.9006
    13.0811  13.2433  13.5800  13.6197  14.0899  14.1300

     occupation numbers 
     1.0000   1.0000   1.0000   1.0000   1.0000   1.0000   1.0000   1.0000
     1.0000   1.0000   1.0000   1.0000   1.0000   1.0000   1.0000   1.0000
     1.0000   1.0000   1.0000   1.0000   1.0000   1.0000   1.0000   0.0000
     0.0000   0.0000   0.0000   0.0000   0.0000   0.0000   0.0000   0.0000
     0.0000   0.0000   0.0000   0.0000   0.0000   0.0000   0.0000   0.0000
     0.0000   0.0000   0.0000   0.0000   0.0000   0.0000

          k = 0.3333 0.5774 0.0000 ( 16809 PWs)   bands (ev):

   -59.1639 -35.2583 -35.2406 -35.1941 -35.1929 -35.1291 -34.6631 -34.6631
   -34.5119 -34.5119 -34.4436 -33.3668 -33.2585 -33.2312 -11.8833 -10.5527
    -3.7609  -3.4178  -1.6951  -1.6928  -1.3233   0.9256   0.9669   2.0536
     2.1911   2.8092   5.2846   6.6127   7.1825   7.9526   8.3803   9.4167
     9.4734  10.6511  11.2744  11.8403  12.1617  12.1863  12.6613  12.7996
    13.1553  13.3554  13.5778  13.6517  13.7851  13.9437

     occupation numbers 
     1.0000   1.0000   1.0000   1.0000   1.0000   1.0000   1.0000   1.0000
     1.0000   1.0000   1.0000   1.0000   1.0000   1.0000   1.0000   1.0000
     1.0000   1.0000   1.0000   1.0000   1.0000   1.0000   1.0000   0.0000
     0.0000   0.0000   0.0000   0.0000   0.0000   0.0000   0.0000   0.0000
     0.0000   0.0000   0.0000   0.0000   0.0000   0.0000   0.0000   0.0000
     0.0000   0.0000   0.0000   0.0000   0.0000   0.0000

     the Fermi energy is     1.8069 ev
     (compare with:     1.7871 eV, computed in scf)

     Writing all to output data dir ./outdir/MoTe2.save/
 
     init_run     :      0.88s CPU      0.94s WALL (       1 calls)
     electrons    :   2154.72s CPU   2192.03s WALL (       1 calls)

     Called by init_run:
     wfcinit      :      0.00s CPU      0.00s WALL (       1 calls)
     wfcinit:atom :      0.67s CPU      0.69s WALL (     127 calls)
     wfcinit:wfcr :     46.00s CPU     46.95s WALL (     127 calls)
     potinit      :      0.13s CPU      0.16s WALL (       1 calls)
     hinit0       :      0.48s CPU      0.49s WALL (       1 calls)

     Called by electrons:
     c_bands      :   2154.29s CPU   2191.60s WALL (       1 calls)
     v_of_rho     :      0.12s CPU      0.14s WALL (       1 calls)
     v_h          :      0.01s CPU      0.01s WALL (       1 calls)
     v_xc         :      0.12s CPU      0.13s WALL (       1 calls)

     Called by c_bands:
     init_us_2    :      1.15s CPU      1.18s WALL (     127 calls)
     init_us_2:cp :      1.15s CPU      1.18s WALL (     127 calls)
     cegterg      :   2082.44s CPU   2117.55s WALL (     522 calls)

     Called by sum_band:

     Called by *egterg:
     cdiaghg      :     45.21s CPU     45.45s WALL (    9422 calls)
     cegterg:over :    169.39s CPU    169.99s WALL (    9295 calls)
     cegterg:upda :    106.84s CPU    107.22s WALL (    9295 calls)
     cegterg:last :    180.74s CPU    181.30s WALL (    5050 calls)
     h_psi        :   1560.59s CPU   1594.66s WALL (    9944 calls)
     g_psi        :     28.89s CPU     29.00s WALL (    9295 calls)

     Called by h_psi:
     h_psi:calbec :     92.79s CPU     93.28s WALL (    9944 calls)
     vloc_psi     :   1361.31s CPU   1394.46s WALL (    9944 calls)
     add_vuspsi   :     96.60s CPU     96.93s WALL (    9944 calls)

     General routines
     calbec       :     92.73s CPU     93.23s WALL (    9944 calls)
     fft          :      0.05s CPU      0.06s WALL (      11 calls)
     fftw         :   1166.16s CPU   1192.65s WALL (  431478 calls)
     davcio       :      0.05s CPU      1.44s WALL (     254 calls)
 
     Parallel routines
 
     PWSCF        :  35m56.85s CPU  36m38.43s WALL

 
   This run was terminated on:  21:52:13  10Jan2024            

=------------------------------------------------------------------------------=
   JOB DONE.
=------------------------------------------------------------------------------=
