export BASH_ENV=/etc/profile.d/modules.sh

     Program PWSCF v.7.2 starts on  9Jan2024 at  2:53:56 

     This program is part of the open-source Quantum ESPRESSO suite
     for quantum simulation of materials; please cite
         "P. Giannozzi et al., J. Phys.:Condens. Matter 21 395502 (2009);
         "P. Giannozzi et al., J. Phys.:Condens. Matter 29 465901 (2017);
         "P. Giannozzi et al., J. Chem. Phys. 152 154105 (2020);
          URL http://www.quantum-espresso.org", 
     in publications or presentations arising from this work. More details at
     http://www.quantum-espresso.org/quote

     Parallel version (MPI & OpenMP), running on       4 processor cores
     Number of MPI processes:                 2
     Threads/MPI process:                     2

     MPI processes distributed on     2 nodes
     53353 MiB available memory on the printing compute node when the environment starts
 
     Reading input from opt.in

     Current dimensions of program PWSCF are:
     Max number of different atomic species (ntypx) = 10
     Max number of k-points (npk) =  40000
     Max angular momentum in pseudopotentials (lmaxx) =  4
 
     R & G space division:  proc/nbgrp/npool/nimage =       2
     Subspace diagonalization in iterative solution of the eigenvalue problem:
     a serial algorithm will be used

 
     Parallelization info
     --------------------
     sticks:   dense  smooth     PW     G-vecs:    dense   smooth      PW
     Min         501     501    141                64423    64423    9825
     Max         502     502    142                64440    64440    9844
     Sum        1003    1003    283               128863   128863   19669
 
     Using Slab Decomposition
 


     bravais-lattice index     =            4
     lattice parameter (alat)  =       6.7274  a.u.
     unit-cell volume          =    1333.2136 (a.u.)^3
     number of atoms/cell      =            3
     number of atomic types    =            2
     number of electrons       =        46.00
     number of Kohn-Sham states=           28
     kinetic-energy cutoff     =      80.0000  Ry
     charge density cutoff     =     320.0000  Ry
     scf convergence threshold =      6.0E-10
     mixing beta               =       0.7000
     number of iterations used =            8  plain     mixing
     energy convergence thresh.=      3.0E-05
     force convergence thresh. =      1.0E-04
     press convergence thresh. =      5.0E-01
     Exchange-correlation= PBE
                           (   1   4   3   4   0   0   0)
     nstep                     =           50


     celldm(1)=   6.727425  celldm(2)=   0.000000  celldm(3)=   5.056180
     celldm(4)=   0.000000  celldm(5)=   0.000000  celldm(6)=   0.000000

     crystal axes: (cart. coord. in units of alat)
               a(1) = (   1.000000   0.000000   0.000000 )  
               a(2) = (  -0.500000   0.866025   0.000000 )  
               a(3) = (   0.000000   0.000000   5.056180 )  

     reciprocal axes: (cart. coord. in units 2 pi/alat)
               b(1) = (  1.000000  0.577350  0.000000 )  
               b(2) = (  0.000000  1.154701  0.000000 )  
               b(3) = (  0.000000  0.000000  0.197778 )  


     PseudoPot. # 1 for Mo read from file:
     ./Mo.upf
     MD5 check sum: 7ca7a9feba7bf08d88d14bc7fbf60c1e
     Pseudo is Norm-conserving + core correction, Zval = 14.0
     Generated using ONCVPSP code by D. R. Hamann
     Using radial grid of 1640 points,  6 beta functions with: 
                l(1) =   0
                l(2) =   0
                l(3) =   1
                l(4) =   1
                l(5) =   2
                l(6) =   2

     PseudoPot. # 2 for Te read from file:
     ./Te.upf
     MD5 check sum: 5809bc2f3532353a97804e96cbe9e3f7
     Pseudo is Norm-conserving + core correction, Zval = 16.0
     Generated using ONCVPSP code by D. R. Hamann
     Using radial grid of 1294 points,  9 beta functions with: 
                l(1) =   0
                l(2) =   0
                l(3) =   0
                l(4) =   1
                l(5) =   1
                l(6) =   2
                l(7) =   2
                l(8) =   3
                l(9) =   3

     atomic species   valence    mass     pseudopotential
        Mo            14.00    95.96000     Mo( 1.00)
        Te            16.00   127.60000     Te( 1.00)

     12 Sym. Ops. (no inversion) found


                                    s                        frac. trans.

      isym =  1     identity                                     

 cryst.   s( 1) = (     1          0          0      )
                  (     0          1          0      )
                  (     0          0          1      )

 cart.    s( 1) = (  1.0000000  0.0000000  0.0000000 )
                  (  0.0000000  1.0000000  0.0000000 )
                  (  0.0000000  0.0000000  1.0000000 )


      isym =  2     180 deg rotation - cart. axis [0,1,0]        

 cryst.   s( 2) = (    -1          0          0      )
                  (     1          1          0      )
                  (     0          0         -1      )

 cart.    s( 2) = ( -1.0000000  0.0000000  0.0000000 )
                  (  0.0000000  1.0000000  0.0000000 )
                  (  0.0000000  0.0000000 -1.0000000 )


      isym =  3     120 deg rotation - cryst. axis [0,0,1]       

 cryst.   s( 3) = (     0          1          0      )
                  (    -1         -1          0      )
                  (     0          0          1      )

 cart.    s( 3) = ( -0.5000000 -0.8660254  0.0000000 )
                  (  0.8660254 -0.5000000  0.0000000 )
                  (  0.0000000  0.0000000  1.0000000 )


      isym =  4     120 deg rotation - cryst. axis [0,0,-1]      

 cryst.   s( 4) = (    -1         -1          0      )
                  (     1          0          0      )
                  (     0          0          1      )

 cart.    s( 4) = ( -0.5000000  0.8660254  0.0000000 )
                  ( -0.8660254 -0.5000000  0.0000000 )
                  (  0.0000000  0.0000000  1.0000000 )


      isym =  5     180 deg rotation - cryst. axis [1,-1,0]      

 cryst.   s( 5) = (     0         -1          0      )
                  (    -1          0          0      )
                  (     0          0         -1      )

 cart.    s( 5) = (  0.5000000 -0.8660254  0.0000000 )
                  ( -0.8660254 -0.5000000  0.0000000 )
                  (  0.0000000  0.0000000 -1.0000000 )


      isym =  6     180 deg rotation - cryst. axis [2,1,0]       

 cryst.   s( 6) = (     1          1          0      )
                  (     0         -1          0      )
                  (     0          0         -1      )

 cart.    s( 6) = (  0.5000000  0.8660254  0.0000000 )
                  (  0.8660254 -0.5000000  0.0000000 )
                  (  0.0000000  0.0000000 -1.0000000 )


      isym =  7     inv. 180 deg rotation - cart. axis [0,0,1]   

 cryst.   s( 7) = (     1          0          0      )
                  (     0          1          0      )
                  (     0          0         -1      )

 cart.    s( 7) = (  1.0000000  0.0000000  0.0000000 )
                  (  0.0000000  1.0000000  0.0000000 )
                  (  0.0000000  0.0000000 -1.0000000 )


      isym =  8     inv. 180 deg rotation - cart. axis [1,0,0]   

 cryst.   s( 8) = (    -1          0          0      )
                  (     1          1          0      )
                  (     0          0          1      )

 cart.    s( 8) = ( -1.0000000  0.0000000  0.0000000 )
                  (  0.0000000  1.0000000  0.0000000 )
                  (  0.0000000  0.0000000  1.0000000 )


      isym =  9     inv.  60 deg rotation - cryst. axis [0,0,1]  

 cryst.   s( 9) = (    -1         -1          0      )
                  (     1          0          0      )
                  (     0          0         -1      )

 cart.    s( 9) = ( -0.5000000  0.8660254  0.0000000 )
                  ( -0.8660254 -0.5000000  0.0000000 )
                  (  0.0000000  0.0000000 -1.0000000 )


      isym = 10     inv.  60 deg rotation - cryst. axis [0,0,-1] 

 cryst.   s(10) = (     0          1          0      )
                  (    -1         -1          0      )
                  (     0          0         -1      )

 cart.    s(10) = ( -0.5000000 -0.8660254  0.0000000 )
                  (  0.8660254 -0.5000000  0.0000000 )
                  (  0.0000000  0.0000000 -1.0000000 )


      isym = 11     inv. 180 deg rotation - cryst. axis [0,1,0]  

 cryst.   s(11) = (     1          1          0      )
                  (     0         -1          0      )
                  (     0          0          1      )

 cart.    s(11) = (  0.5000000  0.8660254  0.0000000 )
                  (  0.8660254 -0.5000000  0.0000000 )
                  (  0.0000000  0.0000000  1.0000000 )


      isym = 12     inv. 180 deg rotation - cryst. axis [1,1,0]  

 cryst.   s(12) = (     0         -1          0      )
                  (    -1          0          0      )
                  (     0          0          1      )

 cart.    s(12) = (  0.5000000 -0.8660254  0.0000000 )
                  ( -0.8660254 -0.5000000  0.0000000 )
                  (  0.0000000  0.0000000  1.0000000 )


     point group D_3h (-62m)
     there are  6 classes
     the character table:

       E     2C3   3C2   s_h   2S3   3s_v 
A'_1   1.00  1.00  1.00  1.00  1.00  1.00
A'_2   1.00  1.00 -1.00  1.00  1.00 -1.00
E'     2.00 -1.00  0.00  2.00 -1.00  0.00
A''1   1.00  1.00  1.00 -1.00 -1.00 -1.00
A''2   1.00  1.00 -1.00 -1.00 -1.00  1.00
E''    2.00 -1.00  0.00 -2.00  1.00  0.00

     the symmetry operations in each class and the name of the first element:

     E        1
          identity                                               
     2C3      3    4
          120 deg rotation - cryst. axis [0,0,1]                 
     3C2      2    6    5
          180 deg rotation - cart. axis [0,1,0]                  
     s_h      7
          inv. 180 deg rotation - cart. axis [0,0,1]             
     2S3      9   10
          inv.  60 deg rotation - cryst. axis [0,0,1]            
     3s_v     8   11   12
          inv. 180 deg rotation - cart. axis [1,0,0]             

   Cartesian axes

     site n.     atom                  positions (alat units)
         1           Te  tau(   1) = (  -0.0000000   0.5773503   4.5397186  )
         2           Te  tau(   2) = (  -0.0000000   0.5773503   0.5164612  )
         3           Mo  tau(   3) = (   0.0000000   0.0000000   0.0000000  )

   Crystallographic axes

     site n.     atom                  positions (cryst. coord.)
         1           Te  tau(   1) = (  0.3333333  0.6666667  0.8978555  )
         2           Te  tau(   2) = (  0.3333333  0.6666667  0.1021446  )
         3           Mo  tau(   3) = (  0.0000000  0.0000000  0.0000000  )

     number of k points=    19  Marzari-Vanderbilt smearing, width (Ry)=  0.0147
                       cart. coord. in units 2pi/alat
        k(    1) = (   0.0000000   0.0000000   0.0000000), wk =   0.0138889
        k(    2) = (   0.0000000   0.0962250   0.0000000), wk =   0.0833333
        k(    3) = (   0.0000000   0.1924501   0.0000000), wk =   0.0833333
        k(    4) = (   0.0000000   0.2886751   0.0000000), wk =   0.0833333
        k(    5) = (   0.0000000   0.3849002   0.0000000), wk =   0.0833333
        k(    6) = (   0.0000000   0.4811252   0.0000000), wk =   0.0833333
        k(    7) = (   0.0000000  -0.5773503   0.0000000), wk =   0.0416667
        k(    8) = (   0.0833333   0.1443376   0.0000000), wk =   0.0833333
        k(    9) = (   0.0833333   0.2405626   0.0000000), wk =   0.1666667
        k(   10) = (   0.0833333   0.3367877   0.0000000), wk =   0.1666667
        k(   11) = (   0.0833333   0.4330127   0.0000000), wk =   0.1666667
        k(   12) = (   0.0833333   0.5292377   0.0000000), wk =   0.1666667
        k(   13) = (   0.1666667   0.2886751   0.0000000), wk =   0.0833333
        k(   14) = (   0.1666667   0.3849002   0.0000000), wk =   0.1666667
        k(   15) = (   0.1666667   0.4811252   0.0000000), wk =   0.1666667
        k(   16) = (   0.1666667   0.5773503   0.0000000), wk =   0.0833333
        k(   17) = (   0.2500000   0.4330127   0.0000000), wk =   0.0833333
        k(   18) = (   0.2500000   0.5292377   0.0000000), wk =   0.1666667
        k(   19) = (   0.3333333   0.5773503   0.0000000), wk =   0.0277778

                       cryst. coord.
        k(    1) = (   0.0000000   0.0000000   0.0000000), wk =   0.0138889
        k(    2) = (   0.0000000   0.0833333   0.0000000), wk =   0.0833333
        k(    3) = (   0.0000000   0.1666667   0.0000000), wk =   0.0833333
        k(    4) = (   0.0000000   0.2500000   0.0000000), wk =   0.0833333
        k(    5) = (   0.0000000   0.3333333   0.0000000), wk =   0.0833333
        k(    6) = (   0.0000000   0.4166667   0.0000000), wk =   0.0833333
        k(    7) = (   0.0000000  -0.5000000   0.0000000), wk =   0.0416667
        k(    8) = (   0.0833333   0.0833333   0.0000000), wk =   0.0833333
        k(    9) = (   0.0833333   0.1666667   0.0000000), wk =   0.1666667
        k(   10) = (   0.0833333   0.2500000   0.0000000), wk =   0.1666667
        k(   11) = (   0.0833333   0.3333333   0.0000000), wk =   0.1666667
        k(   12) = (   0.0833333   0.4166667   0.0000000), wk =   0.1666667
        k(   13) = (   0.1666667   0.1666667   0.0000000), wk =   0.0833333
        k(   14) = (   0.1666667   0.2500000   0.0000000), wk =   0.1666667
        k(   15) = (   0.1666667   0.3333333   0.0000000), wk =   0.1666667
        k(   16) = (   0.1666667   0.4166667   0.0000000), wk =   0.0833333
        k(   17) = (   0.2500000   0.2500000   0.0000000), wk =   0.0833333
        k(   18) = (   0.2500000   0.3333333   0.0000000), wk =   0.1666667
        k(   19) = (   0.3333333   0.3333333   0.0000000), wk =   0.0277778

     Dense  grid:   128863 G-vectors     FFT dimensions: (  40,  40, 200)

     Dynamical RAM for                 wfc:       3.44 MB

     Dynamical RAM for     wfc (w. buffer):      68.83 MB

     Dynamical RAM for           str. fact:       1.97 MB

     Dynamical RAM for           local pot:       0.00 MB

     Dynamical RAM for          nlocal pot:      10.32 MB

     Dynamical RAM for                qrad:      17.23 MB

     Dynamical RAM for          rho,v,vnew:       6.61 MB

     Dynamical RAM for               rhoin:       2.20 MB

     Dynamical RAM for            rho*nmix:      15.73 MB

     Dynamical RAM for           G-vectors:       4.18 MB

     Dynamical RAM for          h,s,v(r/c):       0.14 MB

     Dynamical RAM for          <psi|beta>:       0.04 MB

     Dynamical RAM for                 psi:       6.88 MB

     Dynamical RAM for                hpsi:       6.88 MB

     Dynamical RAM for      wfcinit/wfcrot:       6.90 MB

     Estimated static dynamical RAM per process >     120.40 MB

     Estimated max dynamical RAM per process >     150.08 MB

     Estimated total dynamical RAM >     300.16 MB

     Initial potential from superposition of free atoms

     starting charge      45.9982, renormalised to      46.0000

     negative rho (up, down):  3.758E-05 0.000E+00
     Starting wfcs are   28 randomized atomic wfcs

     total cpu time spent up to now is        5.8 secs

     Self-consistent Calculation

     iteration #  1     ecut=    80.00 Ry     beta= 0.70
     Davidson diagonalization with overlap

---- Real-time Memory Report at c_bands before calling an iterative solver
           262 MiB given to the printing process from OS
             0 MiB allocation reported by mallinfo(arena+hblkhd)
         53164 MiB available memory on the node where the printing process lives
------------------
     ethr =  1.00E-02,  avg # of iterations =  4.9

     Threshold (ethr) on eigenvalues was too large:
     Diagonalizing with lowered threshold

     Davidson diagonalization with overlap

---- Real-time Memory Report at c_bands before calling an iterative solver
           287 MiB given to the printing process from OS
             0 MiB allocation reported by mallinfo(arena+hblkhd)
         53154 MiB available memory on the node where the printing process lives
------------------
     ethr =  4.10E-04,  avg # of iterations =  2.3

     negative rho (up, down):  4.435E-06 0.000E+00

     total cpu time spent up to now is       26.5 secs

     WARNING: integrated charge=    46.00000498, expected=    46.00000000

     total energy              =    -560.54773241 Ry
     estimated scf accuracy    <       0.21647070 Ry

     iteration #  2     ecut=    80.00 Ry     beta= 0.70
     Davidson diagonalization with overlap

---- Real-time Memory Report at c_bands before calling an iterative solver
           315 MiB given to the printing process from OS
             0 MiB allocation reported by mallinfo(arena+hblkhd)
         53117 MiB available memory on the node where the printing process lives
------------------
     ethr =  4.71E-04,  avg # of iterations =  4.1

     negative rho (up, down):  3.283E-06 0.000E+00

     total cpu time spent up to now is       37.5 secs

     total energy              =    -560.34593051 Ry
     estimated scf accuracy    <       1.75262820 Ry

     iteration #  3     ecut=    80.00 Ry     beta= 0.70
     Davidson diagonalization with overlap

---- Real-time Memory Report at c_bands before calling an iterative solver
           331 MiB given to the printing process from OS
             0 MiB allocation reported by mallinfo(arena+hblkhd)
         53097 MiB available memory on the node where the printing process lives
------------------
     ethr =  4.71E-04,  avg # of iterations =  4.0

     negative rho (up, down):  9.339E-08 0.000E+00

     total cpu time spent up to now is       47.9 secs

     WARNING: integrated charge=    46.00081750, expected=    46.00000000

     total energy              =    -560.59426643 Ry
     estimated scf accuracy    <       0.48071567 Ry

     iteration #  4     ecut=    80.00 Ry     beta= 0.70
     Davidson diagonalization with overlap

---- Real-time Memory Report at c_bands before calling an iterative solver
           337 MiB given to the printing process from OS
             0 MiB allocation reported by mallinfo(arena+hblkhd)
         53092 MiB available memory on the node where the printing process lives
------------------
     ethr =  4.71E-04,  avg # of iterations =  2.3

     total cpu time spent up to now is       57.2 secs

     WARNING: integrated charge=    46.00026089, expected=    46.00000000

     total energy              =    -560.63974475 Ry
     estimated scf accuracy    <       0.00501265 Ry

     iteration #  5     ecut=    80.00 Ry     beta= 0.70
     Davidson diagonalization with overlap

---- Real-time Memory Report at c_bands before calling an iterative solver
           338 MiB given to the printing process from OS
             0 MiB allocation reported by mallinfo(arena+hblkhd)
         53092 MiB available memory on the node where the printing process lives
------------------
     ethr =  1.09E-05,  avg # of iterations =  4.4

     total cpu time spent up to now is       68.1 secs

     WARNING: integrated charge=    46.00018056, expected=    46.00000000

     total energy              =    -560.64085146 Ry
     estimated scf accuracy    <       0.00035138 Ry

     iteration #  6     ecut=    80.00 Ry     beta= 0.70
     Davidson diagonalization with overlap

---- Real-time Memory Report at c_bands before calling an iterative solver
           342 MiB given to the printing process from OS
             0 MiB allocation reported by mallinfo(arena+hblkhd)
         53083 MiB available memory on the node where the printing process lives
------------------
     ethr =  7.64E-07,  avg # of iterations =  3.1

     total cpu time spent up to now is       78.8 secs

     WARNING: integrated charge=    46.00005744, expected=    46.00000000

     total energy              =    -560.64093978 Ry
     estimated scf accuracy    <       0.00001038 Ry

     iteration #  7     ecut=    80.00 Ry     beta= 0.70
     Davidson diagonalization with overlap

---- Real-time Memory Report at c_bands before calling an iterative solver
           347 MiB given to the printing process from OS
             0 MiB allocation reported by mallinfo(arena+hblkhd)
         53084 MiB available memory on the node where the printing process lives
------------------
     ethr =  2.26E-08,  avg # of iterations =  3.8

     total cpu time spent up to now is       89.8 secs

     WARNING: integrated charge=    46.00003138, expected=    46.00000000

     total energy              =    -560.64094267 Ry
     estimated scf accuracy    <       0.00000381 Ry

     iteration #  8     ecut=    80.00 Ry     beta= 0.70
     Davidson diagonalization with overlap

---- Real-time Memory Report at c_bands before calling an iterative solver
           349 MiB given to the printing process from OS
             0 MiB allocation reported by mallinfo(arena+hblkhd)
         53079 MiB available memory on the node where the printing process lives
------------------
     ethr =  8.29E-09,  avg # of iterations =  2.0

     total cpu time spent up to now is      100.2 secs

     WARNING: integrated charge=    46.00002631, expected=    46.00000000

     total energy              =    -560.64094357 Ry
     estimated scf accuracy    <       0.00000043 Ry

     iteration #  9     ecut=    80.00 Ry     beta= 0.70
     Davidson diagonalization with overlap

---- Real-time Memory Report at c_bands before calling an iterative solver
           352 MiB given to the printing process from OS
             0 MiB allocation reported by mallinfo(arena+hblkhd)
         53077 MiB available memory on the node where the printing process lives
------------------
     ethr =  9.26E-10,  avg # of iterations =  2.0

     total cpu time spent up to now is      109.1 secs

     WARNING: integrated charge=    46.00002669, expected=    46.00000000

     total energy              =    -560.64094361 Ry
     estimated scf accuracy    <          8.1E-09 Ry

     iteration # 10     ecut=    80.00 Ry     beta= 0.70
     Davidson diagonalization with overlap

---- Real-time Memory Report at c_bands before calling an iterative solver
           355 MiB given to the printing process from OS
             0 MiB allocation reported by mallinfo(arena+hblkhd)
         53073 MiB available memory on the node where the printing process lives
------------------
     ethr =  1.75E-11,  avg # of iterations =  5.1

     total cpu time spent up to now is      121.9 secs

     WARNING: integrated charge=    46.00002653, expected=    46.00000000

     total energy              =    -560.64094361 Ry
     estimated scf accuracy    <       0.00000001 Ry

     iteration # 11     ecut=    80.00 Ry     beta= 0.70
     Davidson diagonalization with overlap

---- Real-time Memory Report at c_bands before calling an iterative solver
           357 MiB given to the printing process from OS
             0 MiB allocation reported by mallinfo(arena+hblkhd)
         53071 MiB available memory on the node where the printing process lives
------------------
     ethr =  1.75E-11,  avg # of iterations =  2.0

     total cpu time spent up to now is      132.1 secs

     End of self-consistent calculation

          k = 0.0000 0.0000 0.0000 ( 16165 PWs)   bands (ev):

   -58.6233 -34.0009 -34.0009 -33.9885 -33.9885 -33.9490 -33.9490 -33.9385
   -33.9385 -33.9334 -33.9261 -32.7787 -32.6236 -32.6236 -12.7060 -12.0977
    -2.8845   0.2607   0.6036   0.6036   1.3264   1.3264   1.5327   5.1586
     5.1586   5.3873   5.3873   5.5452

     occupation numbers 
     1.0000   1.0000   1.0000   1.0000   1.0000   1.0000   1.0000   1.0000
     1.0000   1.0000   1.0000   1.0000   1.0000   1.0000   1.0000   1.0000
     1.0000   1.0000   1.0000   1.0000   1.0000   1.0000   1.0000   0.0000
     0.0000   0.0000   0.0000   0.0000

          k = 0.0000 0.0962 0.0000 ( 16205 PWs)   bands (ev):

   -58.6228 -34.0002 -33.9996 -33.9897 -33.9872 -33.9495 -33.9493 -33.9406
   -33.9386 -33.9328 -33.9255 -32.7739 -32.6319 -32.6251 -12.6272 -12.0412
    -2.7767   0.1264   0.3572   0.6801   1.2045   1.3638   1.5293   4.5812
     4.5962   5.1872   5.2275   5.8950

     occupation numbers 
     1.0000   1.0000   1.0000   1.0000   1.0000   1.0000   1.0000   1.0000
     1.0000   1.0000   1.0000   1.0000   1.0000   1.0000   1.0000   1.0000
     1.0000   1.0000   1.0000   1.0000   1.0000   1.0000   1.0000   0.0000
     0.0000   0.0000   0.0000   0.0000

          k = 0.0000 0.1925 0.0000 ( 16145 PWs)   bands (ev):

   -58.6214 -33.9982 -33.9958 -33.9934 -33.9838 -33.9509 -33.9502 -33.9457
   -33.9389 -33.9313 -33.9236 -32.7608 -32.6545 -32.6290 -12.4018 -11.8799
    -2.4744  -0.3056  -0.2151   0.8963   0.9037   1.2214   1.4638   3.7675
     3.9188   4.7245   5.3754   6.2169

     occupation numbers 
     1.0000   1.0000   1.0000   1.0000   1.0000   1.0000   1.0000   1.0000
     1.0000   1.0000   1.0000   1.0000   1.0000   1.0000   1.0000   1.0000
     1.0000   1.0000   1.0000   1.0000   1.0000   1.0000   1.0000   0.0000
     0.0000   0.0000   0.0000   0.0000

          k = 0.0000 0.2887 0.0000 ( 16141 PWs)   bands (ev):

   -58.6195 -33.9995 -33.9953 -33.9908 -33.9791 -33.9527 -33.9516 -33.9514
   -33.9394 -33.9295 -33.9209 -32.7432 -32.6852 -32.6344 -12.0649 -11.6406
    -2.0684  -1.1876  -0.7875   0.5482   0.8003   1.2106   1.2704   3.3978
     3.9436   4.2215   5.5072   6.6443

     occupation numbers 
     1.0000   1.0000   1.0000   1.0000   1.0000   1.0000   1.0000   1.0000
     1.0000   1.0000   1.0000   1.0000   1.0000   1.0000   1.0000   1.0000
     1.0000   1.0000   1.0000   1.0000   1.0000   1.0000   1.0000   0.0000
     0.0000   0.0000   0.0000   0.0000

          k = 0.0000 0.3849 0.0000 ( 16110 PWs)   bands (ev):

   -58.6176 -34.0067 -33.9923 -33.9861 -33.9745 -33.9561 -33.9542 -33.9523
   -33.9398 -33.9279 -33.9181 -32.7258 -32.7158 -32.6397 -11.6839 -11.3738
    -2.2554  -1.5386  -1.5006   0.2370   0.5049   1.1271   1.5472   3.4353
     3.8196   4.3634   5.5837   7.1199

     occupation numbers 
     1.0000   1.0000   1.0000   1.0000   1.0000   1.0000   1.0000   1.0000
     1.0000   1.0000   1.0000   1.0000   1.0000   1.0000   1.0000   1.0000
     1.0000   1.0000   1.0000   1.0000   1.0000   1.0000   1.0000   0.0000
     0.0000   0.0000   0.0000   0.0000

          k = 0.0000 0.4811 0.0000 ( 16048 PWs)   bands (ev):

   -58.6162 -34.0125 -33.9899 -33.9829 -33.9711 -33.9589 -33.9551 -33.9529
   -33.9401 -33.9270 -33.9161 -32.7381 -32.7132 -32.6437 -11.3669 -11.1562
    -2.9191  -2.1530  -1.2781   0.0300   0.3829   1.2174   1.8040   3.5825
     3.6347   4.8141   5.6149   6.4230

     occupation numbers 
     1.0000   1.0000   1.0000   1.0000   1.0000   1.0000   1.0000   1.0000
     1.0000   1.0000   1.0000   1.0000   1.0000   1.0000   1.0000   1.0000
     1.0000   1.0000   1.0000   1.0000   1.0000   1.0000   1.0000   0.0000
     0.0000   0.0000   0.0000   0.0000

          k = 0.0000-0.5774 0.0000 ( 16086 PWs)   bands (ev):

   -58.6157 -34.0147 -33.9890 -33.9818 -33.9699 -33.9597 -33.9553 -33.9531
   -33.9402 -33.9267 -33.9153 -32.7463 -32.7087 -32.6451 -11.2403 -11.0708
    -3.1783  -2.3849  -1.2117  -0.0422   0.3519   1.3283   1.8979   3.5100
     3.7697   5.0133   5.6222   5.9052

     occupation numbers 
     1.0000   1.0000   1.0000   1.0000   1.0000   1.0000   1.0000   1.0000
     1.0000   1.0000   1.0000   1.0000   1.0000   1.0000   1.0000   1.0000
     1.0000   1.0000   1.0000   1.0000   1.0000   1.0000   1.0000   0.0000
     0.0000   0.0000   0.0000   0.0000

          k = 0.0833 0.1443 0.0000 ( 16139 PWs)   bands (ev):

   -58.6219 -33.9988 -33.9971 -33.9920 -33.9850 -33.9507 -33.9497 -33.9441
   -33.9389 -33.9317 -33.9242 -32.7649 -32.6469 -32.6281 -12.4751 -11.9322
    -2.5707  -0.0845  -0.0836   0.8114   0.8661   1.4259   1.4978   3.9733
     4.0023   4.7880   5.3165   6.1384

     occupation numbers 
     1.0000   1.0000   1.0000   1.0000   1.0000   1.0000   1.0000   1.0000
     1.0000   1.0000   1.0000   1.0000   1.0000   1.0000   1.0000   1.0000
     1.0000   1.0000   1.0000   1.0000   1.0000   1.0000   1.0000   0.0000
     0.0000   0.0000   0.0000   0.0000

          k = 0.0833 0.2406 0.0000 ( 16139 PWs)   bands (ev):

   -58.6202 -33.9967 -33.9961 -33.9930 -33.9814 -33.9528 -33.9502 -33.9494
   -33.9394 -33.9301 -33.9219 -32.7496 -32.6726 -32.6338 -12.1930 -11.7312
    -2.2042  -0.8258  -0.4610   0.3143   0.9708   1.2881   1.4164   3.4622
     3.7372   4.2615   5.3985   6.5233

     occupation numbers 
     1.0000   1.0000   1.0000   1.0000   1.0000   1.0000   1.0000   1.0000
     1.0000   1.0000   1.0000   1.0000   1.0000   1.0000   1.0000   1.0000
     1.0000   1.0000   1.0000   1.0000   1.0000   1.0000   1.0000   0.0000
     0.0000   0.0000   0.0000   0.0000

          k = 0.0833 0.3368 0.0000 ( 16130 PWs)   bands (ev):

   -58.6183 -34.0031 -33.9929 -33.9883 -33.9772 -33.9551 -33.9541 -33.9505
   -33.9399 -33.9285 -33.9192 -32.7321 -32.7020 -32.6404 -11.8310 -11.4756
    -1.9304  -1.5316  -1.1405  -0.0305   0.8945   0.9236   1.5267   3.3066
     3.8937   4.0083   5.4229   7.0315

     occupation numbers 
     1.0000   1.0000   1.0000   1.0000   1.0000   1.0000   1.0000   1.0000
     1.0000   1.0000   1.0000   1.0000   1.0000   1.0000   1.0000   1.0000
     1.0000   1.0000   1.0000   1.0000   1.0000   1.0000   1.0000   0.0000
     0.0000   0.0000   0.0000   0.0000

          k = 0.0833 0.4330 0.0000 ( 16095 PWs)   bands (ev):

   -58.6166 -34.0095 -33.9900 -33.9845 -33.9736 -33.9572 -33.9570 -33.9505
   -33.9404 -33.9274 -33.9168 -32.7274 -32.7172 -32.6461 -11.4754 -11.2287
    -2.5661  -1.8627  -1.3346  -0.1518   0.5874   0.8183   1.7364   3.4198
     3.7275   4.4864   5.3810   7.0802

     occupation numbers 
     1.0000   1.0000   1.0000   1.0000   1.0000   1.0000   1.0000   1.0000
     1.0000   1.0000   1.0000   1.0000   1.0000   1.0000   1.0000   1.0000
     1.0000   1.0000   1.0000   1.0000   1.0000   1.0000   1.0000   0.0000
     0.0000   0.0000   0.0000   0.0000

          k = 0.0833 0.5292 0.0000 ( 16066 PWs)   bands (ev):

   -58.6157 -34.0135 -33.9884 -33.9824 -33.9716 -33.9587 -33.9580 -33.9503
   -33.9406 -33.9270 -33.9155 -32.7420 -32.7087 -32.6494 -11.2461 -11.0725
    -3.0303  -2.2982  -1.1974  -0.1816   0.3947   0.8796   1.8850   3.5288
     3.7818   4.9116   5.2634   6.1719

     occupation numbers 
     1.0000   1.0000   1.0000   1.0000   1.0000   1.0000   1.0000   1.0000
     1.0000   1.0000   1.0000   1.0000   1.0000   1.0000   1.0000   1.0000
     1.0000   1.0000   1.0000   1.0000   1.0000   1.0000   1.0000   0.0000
     0.0000   0.0000   0.0000   0.0000

          k = 0.1667 0.2887 0.0000 ( 16129 PWs)   bands (ev):

   -58.6185 -34.0013 -33.9926 -33.9897 -33.9788 -33.9557 -33.9531 -33.9496
   -33.9402 -33.9288 -33.9196 -32.7344 -32.6952 -32.6424 -11.8837 -11.5120
    -1.8588  -1.4238  -0.8443  -0.3317   0.6909   1.2006   1.5535   3.2262
     3.7407   3.8779   5.3402   7.0061

     occupation numbers 
     1.0000   1.0000   1.0000   1.0000   1.0000   1.0000   1.0000   1.0000
     1.0000   1.0000   1.0000   1.0000   1.0000   1.0000   1.0000   1.0000
     1.0000   1.0000   1.0000   1.0000   1.0000   1.0000   1.0000   0.0001
     0.0000   0.0000   0.0000   0.0000

          k = 0.1667 0.3849 0.0000 ( 16105 PWs)   bands (ev):

   -58.6169 -34.0066 -33.9891 -33.9863 -33.9764 -33.9586 -33.9556 -33.9486
   -33.9410 -33.9278 -33.9173 -32.7194 -32.7167 -32.6520 -11.5392 -11.2705
    -2.1758  -1.5331  -1.3582  -0.5099   0.2767   0.8564   1.6988   3.2682
     3.7760   4.0054   5.3053   7.5638

     occupation numbers 
     1.0000   1.0000   1.0000   1.0000   1.0000   1.0000   1.0000   1.0000
     1.0000   1.0000   1.0000   1.0000   1.0000   1.0000   1.0000   1.0000
     1.0000   1.0000   1.0000   1.0000   1.0000   1.0000   1.0000   0.0000
     0.0000   0.0000   0.0000   0.0000

          k = 0.1667 0.4811 0.0000 ( 16098 PWs)   bands (ev):

   -58.6157 -34.0109 -33.9871 -33.9832 -33.9748 -33.9609 -33.9568 -33.9474
   -33.9416 -33.9274 -33.9157 -32.7320 -32.7086 -32.6594 -11.2576 -11.0759
    -2.6568  -2.0851  -1.1579  -0.5047   0.0380   0.5048   1.8405   3.4859
     3.8319   4.2720   5.3516   6.7971

     occupation numbers 
     1.0000   1.0000   1.0000   1.0000   1.0000   1.0000   1.0000   1.0000
     1.0000   1.0000   1.0000   1.0000   1.0000   1.0000   1.0000   1.0000
     1.0000   1.0000   1.0000   1.0000   1.0000   1.0000   1.0000   0.0000
     0.0000   0.0000   0.0000   0.0000

          k = 0.1667 0.5774 0.0000 ( 16082 PWs)   bands (ev):

   -58.6152 -34.0125 -33.9866 -33.9819 -33.9742 -33.9617 -33.9571 -33.9469
   -33.9419 -33.9274 -33.9152 -32.7376 -32.7047 -32.6621 -11.1467 -11.0001
    -2.8450  -2.2889  -1.1216  -0.4748  -0.0100   0.3517   1.9419   3.4671
     4.0371   4.3664   5.4016   6.2775

     occupation numbers 
     1.0000   1.0000   1.0000   1.0000   1.0000   1.0000   1.0000   1.0000
     1.0000   1.0000   1.0000   1.0000   1.0000   1.0000   1.0000   1.0000
     1.0000   1.0000   1.0000   1.0000   1.0000   1.0000   1.0000   0.0000
     0.0000   0.0000   0.0000   0.0000

          k = 0.2500 0.4330 0.0000 ( 16100 PWs)   bands (ev):

   -58.6157 -34.0094 -33.9867 -33.9834 -33.9765 -33.9621 -33.9559 -33.9463
   -33.9422 -33.9277 -33.9159 -32.7258 -32.7086 -32.6656 -11.2633 -11.0775
    -2.3942  -1.9423  -1.1121  -0.7012  -0.4446   0.5695   1.8169   3.4523
     3.8567   3.9883   5.4249   7.3399

     occupation numbers 
     1.0000   1.0000   1.0000   1.0000   1.0000   1.0000   1.0000   1.0000
     1.0000   1.0000   1.0000   1.0000   1.0000   1.0000   1.0000   1.0000
     1.0000   1.0000   1.0000   1.0000   1.0000   1.0000   1.0000   0.0000
     0.0000   0.0000   0.0000   0.0000

          k = 0.2500 0.5292 0.0000 ( 16092 PWs)   bands (ev):

   -58.6150 -34.0111 -33.9864 -33.9801 -33.9766 -33.9646 -33.9557 -33.9446
   -33.9430 -33.9279 -33.9151 -32.7293 -32.7023 -32.6752 -11.0922 -10.9585
    -2.4609  -2.2035  -1.1343  -0.7934  -0.7252   0.3191   1.9981   3.3488
     3.9584   4.2524   5.6241   6.7260

     occupation numbers 
     1.0000   1.0000   1.0000   1.0000   1.0000   1.0000   1.0000   1.0000
     1.0000   1.0000   1.0000   1.0000   1.0000   1.0000   1.0000   1.0000
     1.0000   1.0000   1.0000   1.0000   1.0000   1.0000   1.0000   0.0000
     0.0000   0.0000   0.0000   0.0000

          k = 0.3333 0.5774 0.0000 ( 16080 PWs)   bands (ev):

   -58.6147 -34.0110 -33.9866 -33.9779 -33.9774 -33.9666 -33.9552 -33.9436
   -33.9435 -33.9282 -33.9149 -32.7258 -32.7000 -32.6835 -11.0303 -10.9143
    -2.2377  -2.1495  -1.5721  -0.9016  -0.8028   0.2307   2.1164   3.2124
     3.8377   4.5130   5.7694   7.0126

     occupation numbers 
     1.0000   1.0000   1.0000   1.0000   1.0000   1.0000   1.0000   1.0000
     1.0000   1.0000   1.0000   1.0000   1.0000   1.0000   1.0000   1.0000
     1.0000   1.0000   1.0000   1.0000   1.0000   1.0000   1.0004   0.0001
     0.0000   0.0000   0.0000   0.0000

     the Fermi energy is     2.7704 ev

     WARNING: integrated charge=    46.00002653, expected=    46.00000000

!    total energy              =    -560.64094361 Ry
     estimated scf accuracy    <          2.5E-10 Ry
     smearing contrib. (-TS)   =       0.00000030 Ry
     internal energy E=F+TS    =    -560.64094391 Ry

     The total energy is F=E-TS. E is the sum of the following terms:
     one-electron contribution =   -2026.68122570 Ry
     hartree contribution      =    1015.91401644 Ry
     xc contribution           =    -118.98619818 Ry
     ewald contribution        =     569.11246352 Ry

     convergence has been achieved in  11 iterations

     Forces acting on atoms (cartesian axes, Ry/au):

     atom    1 type  2   force =     0.00000000    0.00000000    0.00990372
     atom    2 type  2   force =     0.00000000    0.00000000   -0.00990372
     atom    3 type  1   force =     0.00000000   -0.00000000    0.00000000
     The non-local contrib.  to forces
     atom    1 type  2   force =     0.00000000    0.00000000    0.39792062
     atom    2 type  2   force =     0.00000000    0.00000000   -0.39792062
     atom    3 type  1   force =     0.00000000   -0.00000000    0.00000000
     The ionic contribution  to forces
     atom    1 type  2   force =     0.00000008   -0.00000004 -101.40036380
     atom    2 type  2   force =     0.00000008   -0.00000004  101.40036380
     atom    3 type  1   force =    -0.00000015    0.00000009    0.00000000
     The local contribution  to forces
     atom    1 type  2   force =     0.00000364   -0.00000210  101.02832173
     atom    2 type  2   force =     0.00000364   -0.00000210 -101.02832173
     atom    3 type  1   force =    -0.00000000   -0.00000000   -0.00000000
     The core correction contribution to forces
     atom    1 type  2   force =     0.00000019   -0.00000011   -0.01599307
     atom    2 type  2   force =     0.00000019   -0.00000011    0.01599307
     atom    3 type  1   force =     0.00000000    0.00000000   -0.00000000
     The Hubbard contrib.    to forces
     atom    1 type  2   force =     0.00000000    0.00000000    0.00000000
     atom    2 type  2   force =     0.00000000    0.00000000    0.00000000
     atom    3 type  1   force =     0.00000000    0.00000000    0.00000000
     The SCF correction term to forces
     atom    1 type  2   force =    -0.00000000    0.00000000    0.00001825
     atom    2 type  2   force =    -0.00000000    0.00000000   -0.00001825
     atom    3 type  1   force =     0.00000000   -0.00000000    0.00000000

     Total force =     0.014006     Total SCF correction =     0.000026


     Computing stress (Cartesian axis) and pressure

          total   stress  (Ry/bohr**3)                   (kbar)     P=       -5.46
  -0.00002868  -0.00000000   0.00000000           -4.22       -0.00        0.00
  -0.00000000  -0.00002868  -0.00000000           -0.00       -4.22       -0.00
   0.00000000  -0.00000000  -0.00005400            0.00       -0.00       -7.94

     kinetic stress (kbar)  20045.83      0.00      0.00
                                0.00  20045.83      0.00
                                0.00      0.00  20041.74

     local   stress (kbar)-202911.99      0.00     -0.00
                                0.00-202911.99      0.00
                               -0.00      0.00 199956.89

     nonloc. stress (kbar)  -6778.78      0.00     -0.00
                                0.00  -6778.78      0.00
                               -0.00      0.00  -6757.46

     hartree stress (kbar) 103217.16      0.00      0.00
                                0.00 103217.16     -0.00
                                0.00     -0.00 -94339.66

     exc-cor stress (kbar)   3966.68     -0.00      0.00
                               -0.00   3966.68      0.00
                                0.00      0.00   3966.89

     corecor stress (kbar)  -6919.41     -0.00      0.00
                               -0.00  -6919.41      0.00
                                0.00      0.00  -6918.88

     ewald   stress (kbar)  89376.30     -0.00      0.00
                               -0.00  89376.30      0.00
                                0.00      0.00-115957.47

     hubbard stress (kbar)      0.00      0.00      0.00
                                0.00      0.00      0.00
                                0.00      0.00      0.00

     DFT-D   stress (kbar)      0.00      0.00      0.00
                                0.00      0.00      0.00
                                0.00      0.00      0.00

     XDM     stress (kbar)      0.00      0.00      0.00
                                0.00      0.00      0.00
                                0.00      0.00      0.00

     dft-nl  stress (kbar)      0.00      0.00      0.00
                                0.00      0.00      0.00
                                0.00      0.00      0.00

     TS-vdW  stress (kbar)      0.00      0.00      0.00
                                0.00      0.00      0.00
                                0.00      0.00      0.00

     MDB     stress (kbar)      0.00      0.00      0.00
                                0.00      0.00      0.00
                                0.00      0.00      0.00

     3D-RISM stress (kbar)      0.00      0.00      0.00
                                0.00      0.00      0.00
                                0.00      0.00      0.00


     BFGS Geometry Optimization
     Energy error            =      0.0E+00 Ry
     Gradient error          =      9.9E-03 Ry/Bohr
     Cell gradient error     =      7.9E+00 kbar

     number of scf cycles    =   1
     number of bfgs steps    =   0

     enthalpy           new  =    -560.6409436102 Ry

     new trust radius        =       0.0099037219 bohr
ibrav =      4
 celldm(1) =      6.72260203
 celldm(3) =      5.05297601
Input lattice vectors:
     0.99928309    -0.00000000     0.00000000
    -0.49964154     0.86540454    -0.00000000
     0.00000000    -0.00000000     5.04935348
New lattice vectors in INITIAL alat:
     0.99928309     0.00000000     0.00000000
    -0.49964154     0.86540454     0.00000000
     0.00000000     0.00000000     5.04935348
New lattice vectors in NEW alat (for information only):
     1.00000000     0.00000000     0.00000000
    -0.50000000     0.86602540     0.00000000
     0.00000000     0.00000000     5.05297601
Discrepancy in bohr =     0.000000    0.000000    0.000000
     new conv_thr            =       0.0000000006 Ry

     new unit-cell volume =   1329.50531 a.u.^3 (   197.01236 Ang^3 )
     density =      2.95979 g/cm^3

CELL_PARAMETERS (alat=  6.72742500)
   0.999283088   0.000000000   0.000000000
  -0.499641544   0.865404540   0.000000000
   0.000000000   0.000000000   5.049353475

ATOMIC_POSITIONS (crystal)
Te            0.3333333300        0.6666666700        0.8981466069
Te            0.3333333300        0.6666666700        0.1018533931
Mo           -0.0000000000       -0.0000000000        0.0000000000



     Writing config-only to output data dir ./MoTe2.save/
     NEW-OLD atomic charge density approx. for the potential

     negative rho (up, down):  1.429E-06 0.000E+00
     extrapolated charge   45.87173, renormalised to   46.00000

     total cpu time spent up to now is      156.3 secs

     Self-consistent Calculation

     iteration #  1     ecut=    80.00 Ry     beta= 0.70
     Davidson diagonalization with overlap

---- Real-time Memory Report at c_bands before calling an iterative solver
          1175 MiB given to the printing process from OS
             0 MiB allocation reported by mallinfo(arena+hblkhd)
         53057 MiB available memory on the node where the printing process lives
------------------
     ethr =  1.00E-06,  avg # of iterations = 11.7

     negative rho (up, down):  3.745E-07 0.000E+00

     total cpu time spent up to now is      179.6 secs

     WARNING: integrated charge=    46.00004811, expected=    46.00000000

     total energy              =    -560.52290234 Ry
     estimated scf accuracy    <       0.11923004 Ry

     iteration #  2     ecut=    80.00 Ry     beta= 0.70
     Davidson diagonalization with overlap

---- Real-time Memory Report at c_bands before calling an iterative solver
          1175 MiB given to the printing process from OS
             0 MiB allocation reported by mallinfo(arena+hblkhd)
         53039 MiB available memory on the node where the printing process lives
------------------
     ethr =  2.59E-04,  avg # of iterations =  7.8

     total cpu time spent up to now is      194.3 secs

     WARNING: integrated charge=    46.00004369, expected=    46.00000000

     total energy              =    -560.27713789 Ry
     estimated scf accuracy    <       5.15920761 Ry

     iteration #  3     ecut=    80.00 Ry     beta= 0.70
     Davidson diagonalization with overlap

---- Real-time Memory Report at c_bands before calling an iterative solver
          1175 MiB given to the printing process from OS
             0 MiB allocation reported by mallinfo(arena+hblkhd)
         53032 MiB available memory on the node where the printing process lives
------------------
     ethr =  2.59E-04,  avg # of iterations =  8.1

     total cpu time spent up to now is      207.7 secs

     WARNING: integrated charge=    46.00005669, expected=    46.00000000

     total energy              =    -560.64362075 Ry
     estimated scf accuracy    <       0.10273626 Ry

     iteration #  4     ecut=    80.00 Ry     beta= 0.70
     Davidson diagonalization with overlap

---- Real-time Memory Report at c_bands before calling an iterative solver
          1175 MiB given to the printing process from OS
             0 MiB allocation reported by mallinfo(arena+hblkhd)
         53033 MiB available memory on the node where the printing process lives
------------------
     ethr =  2.23E-04,  avg # of iterations =  1.0

     total cpu time spent up to now is      216.0 secs

     WARNING: integrated charge=    46.00005542, expected=    46.00000000

     total energy              =    -560.64249242 Ry
     estimated scf accuracy    <       0.04564112 Ry

     iteration #  5     ecut=    80.00 Ry     beta= 0.70
     Davidson diagonalization with overlap

---- Real-time Memory Report at c_bands before calling an iterative solver
          1175 MiB given to the printing process from OS
             0 MiB allocation reported by mallinfo(arena+hblkhd)
         53033 MiB available memory on the node where the printing process lives
------------------
     ethr =  9.92E-05,  avg # of iterations =  1.2

     total cpu time spent up to now is      224.4 secs

     WARNING: integrated charge=    46.00004817, expected=    46.00000000

     total energy              =    -560.64206721 Ry
     estimated scf accuracy    <       0.02166532 Ry

     iteration #  6     ecut=    80.00 Ry     beta= 0.70
     Davidson diagonalization with overlap

---- Real-time Memory Report at c_bands before calling an iterative solver
          1175 MiB given to the printing process from OS
             0 MiB allocation reported by mallinfo(arena+hblkhd)
         53027 MiB available memory on the node where the printing process lives
------------------
     ethr =  4.71E-05,  avg # of iterations =  1.7

     total cpu time spent up to now is      232.8 secs

     WARNING: integrated charge=    46.00004012, expected=    46.00000000

     total energy              =    -560.64153768 Ry
     estimated scf accuracy    <       0.01217260 Ry

     iteration #  7     ecut=    80.00 Ry     beta= 0.70
     Davidson diagonalization with overlap

---- Real-time Memory Report at c_bands before calling an iterative solver
          1175 MiB given to the printing process from OS
             0 MiB allocation reported by mallinfo(arena+hblkhd)
         53026 MiB available memory on the node where the printing process lives
------------------
     ethr =  2.65E-05,  avg # of iterations =  4.3

     negative rho (up, down):  1.986E-04 0.000E+00

     total cpu time spent up to now is      241.8 secs

     WARNING: integrated charge=    46.00003396, expected=    46.00000000

     total energy              =    -560.64134822 Ry
     estimated scf accuracy    <       0.00551341 Ry

     iteration #  8     ecut=    80.00 Ry     beta= 0.70
     Davidson diagonalization with overlap

---- Real-time Memory Report at c_bands before calling an iterative solver
          1175 MiB given to the printing process from OS
             0 MiB allocation reported by mallinfo(arena+hblkhd)
         53026 MiB available memory on the node where the printing process lives
------------------
     ethr =  1.20E-05,  avg # of iterations =  2.4

     negative rho (up, down):  5.008E-05 0.000E+00

     total cpu time spent up to now is      250.6 secs

     WARNING: integrated charge=    46.00003267, expected=    46.00000000

     total energy              =    -560.64139144 Ry
     estimated scf accuracy    <       0.00237619 Ry

     iteration #  9     ecut=    80.00 Ry     beta= 0.70
     Davidson diagonalization with overlap

---- Real-time Memory Report at c_bands before calling an iterative solver
          1175 MiB given to the printing process from OS
             0 MiB allocation reported by mallinfo(arena+hblkhd)
         53021 MiB available memory on the node where the printing process lives
------------------
     ethr =  5.17E-06,  avg # of iterations =  2.3

     total cpu time spent up to now is      259.2 secs

     WARNING: integrated charge=    46.00003115, expected=    46.00000000

     total energy              =    -560.64137019 Ry
     estimated scf accuracy    <       0.00188475 Ry

     iteration # 10     ecut=    80.00 Ry     beta= 0.70
     Davidson diagonalization with overlap

---- Real-time Memory Report at c_bands before calling an iterative solver
          1175 MiB given to the printing process from OS
             0 MiB allocation reported by mallinfo(arena+hblkhd)
         53025 MiB available memory on the node where the printing process lives
------------------
     ethr =  4.10E-06,  avg # of iterations =  1.3

     negative rho (up, down):  9.996E-05 0.000E+00

     total cpu time spent up to now is      267.6 secs

     WARNING: integrated charge=    46.00002045, expected=    46.00000000

     total energy              =    -560.64109505 Ry
     estimated scf accuracy    <       0.00151325 Ry

     iteration # 11     ecut=    80.00 Ry     beta= 0.70
     Davidson diagonalization with overlap

---- Real-time Memory Report at c_bands before calling an iterative solver
          1175 MiB given to the printing process from OS
             0 MiB allocation reported by mallinfo(arena+hblkhd)
         53024 MiB available memory on the node where the printing process lives
------------------
     ethr =  3.29E-06,  avg # of iterations =  2.9

     negative rho (up, down):  7.781E-08 0.000E+00

     total cpu time spent up to now is      276.8 secs

     WARNING: integrated charge=    46.00002035, expected=    46.00000000

     total energy              =    -560.64122245 Ry
     estimated scf accuracy    <       0.00001168 Ry

     iteration # 12     ecut=    80.00 Ry     beta= 0.70
     Davidson diagonalization with overlap

---- Real-time Memory Report at c_bands before calling an iterative solver
          1175 MiB given to the printing process from OS
             0 MiB allocation reported by mallinfo(arena+hblkhd)
         53031 MiB available memory on the node where the printing process lives
------------------
     ethr =  2.54E-08,  avg # of iterations =  5.2

     negative rho (up, down):  6.992E-07 0.000E+00

     total cpu time spent up to now is      287.4 secs

     WARNING: integrated charge=    46.00002064, expected=    46.00000000

     total energy              =    -560.64122512 Ry
     estimated scf accuracy    <       0.00000368 Ry

     iteration # 13     ecut=    80.00 Ry     beta= 0.70
     Davidson diagonalization with overlap

---- Real-time Memory Report at c_bands before calling an iterative solver
          1175 MiB given to the printing process from OS
             0 MiB allocation reported by mallinfo(arena+hblkhd)
         53031 MiB available memory on the node where the printing process lives
------------------
     ethr =  8.01E-09,  avg # of iterations =  1.9

     negative rho (up, down):  1.003E-06 0.000E+00

     total cpu time spent up to now is      296.2 secs

     WARNING: integrated charge=    46.00002056, expected=    46.00000000

     total energy              =    -560.64122531 Ry
     estimated scf accuracy    <       0.00000152 Ry

     iteration # 14     ecut=    80.00 Ry     beta= 0.70
     Davidson diagonalization with overlap

---- Real-time Memory Report at c_bands before calling an iterative solver
          1175 MiB given to the printing process from OS
             0 MiB allocation reported by mallinfo(arena+hblkhd)
         53031 MiB available memory on the node where the printing process lives
------------------
     ethr =  3.30E-09,  avg # of iterations =  1.0

     negative rho (up, down):  2.312E-06 0.000E+00

     total cpu time spent up to now is      304.5 secs

     WARNING: integrated charge=    46.00002008, expected=    46.00000000

     total energy              =    -560.64122569 Ry
     estimated scf accuracy    <       0.00000130 Ry

     iteration # 15     ecut=    80.00 Ry     beta= 0.70
     Davidson diagonalization with overlap

---- Real-time Memory Report at c_bands before calling an iterative solver
          1175 MiB given to the printing process from OS
             0 MiB allocation reported by mallinfo(arena+hblkhd)
         53029 MiB available memory on the node where the printing process lives
------------------
     ethr =  2.82E-09,  avg # of iterations =  1.0

     negative rho (up, down):  1.393E-06 0.000E+00

     total cpu time spent up to now is      312.7 secs

     WARNING: integrated charge=    46.00002053, expected=    46.00000000

     total energy              =    -560.64122538 Ry
     estimated scf accuracy    <       0.00000389 Ry

     iteration # 16     ecut=    80.00 Ry     beta= 0.70
     Davidson diagonalization with overlap

---- Real-time Memory Report at c_bands before calling an iterative solver
          1175 MiB given to the printing process from OS
             0 MiB allocation reported by mallinfo(arena+hblkhd)
         53026 MiB available memory on the node where the printing process lives
------------------
     ethr =  2.82E-09,  avg # of iterations =  1.0

     total cpu time spent up to now is      321.0 secs

     WARNING: integrated charge=    46.00002169, expected=    46.00000000

     total energy              =    -560.64122486 Ry
     estimated scf accuracy    <       0.00000193 Ry

     iteration # 17     ecut=    80.00 Ry     beta= 0.70
     Davidson diagonalization with overlap

---- Real-time Memory Report at c_bands before calling an iterative solver
          1175 MiB given to the printing process from OS
             0 MiB allocation reported by mallinfo(arena+hblkhd)
         53029 MiB available memory on the node where the printing process lives
------------------
     ethr =  2.82E-09,  avg # of iterations =  2.0

     total cpu time spent up to now is      330.6 secs

     WARNING: integrated charge=    46.00002165, expected=    46.00000000

     total energy              =    -560.64122515 Ry
     estimated scf accuracy    <       0.00000004 Ry

     iteration # 18     ecut=    80.00 Ry     beta= 0.70
     Davidson diagonalization with overlap

---- Real-time Memory Report at c_bands before calling an iterative solver
          1175 MiB given to the printing process from OS
             0 MiB allocation reported by mallinfo(arena+hblkhd)
         53031 MiB available memory on the node where the printing process lives
------------------
     ethr =  9.28E-11,  avg # of iterations =  2.2

     total cpu time spent up to now is      340.5 secs

     WARNING: integrated charge=    46.00002170, expected=    46.00000000

     total energy              =    -560.64122515 Ry
     estimated scf accuracy    <          5.3E-09 Ry

     iteration # 19     ecut=    80.00 Ry     beta= 0.70
     Davidson diagonalization with overlap

---- Real-time Memory Report at c_bands before calling an iterative solver
          1175 MiB given to the printing process from OS
             0 MiB allocation reported by mallinfo(arena+hblkhd)
         53030 MiB available memory on the node where the printing process lives
------------------
     ethr =  1.16E-11,  avg # of iterations =  2.7

     total cpu time spent up to now is      349.5 secs

     WARNING: integrated charge=    46.00002171, expected=    46.00000000

     total energy              =    -560.64122515 Ry
     estimated scf accuracy    <          5.7E-09 Ry

     iteration # 20     ecut=    80.00 Ry     beta= 0.70
     Davidson diagonalization with overlap

---- Real-time Memory Report at c_bands before calling an iterative solver
          1175 MiB given to the printing process from OS
             0 MiB allocation reported by mallinfo(arena+hblkhd)
         53030 MiB available memory on the node where the printing process lives
------------------
     ethr =  1.16E-11,  avg # of iterations =  1.0

     total cpu time spent up to now is      357.8 secs

     WARNING: integrated charge=    46.00002172, expected=    46.00000000

     total energy              =    -560.64122515 Ry
     estimated scf accuracy    <          1.0E-09 Ry

     iteration # 21     ecut=    80.00 Ry     beta= 0.70
     Davidson diagonalization with overlap

---- Real-time Memory Report at c_bands before calling an iterative solver
          1175 MiB given to the printing process from OS
             0 MiB allocation reported by mallinfo(arena+hblkhd)
         53030 MiB available memory on the node where the printing process lives
------------------
     ethr =  2.24E-12,  avg # of iterations =  2.6

     total cpu time spent up to now is      367.6 secs

     End of self-consistent calculation

          k = 0.0000 0.0000 0.0000 ( 16165 PWs)   bands (ev):

   -58.6024 -33.9889 -33.9889 -33.9757 -33.9757 -33.9361 -33.9361 -33.9253
   -33.9253 -33.9202 -33.9126 -32.7602 -32.6047 -32.6047 -12.7131 -12.0894
    -2.8900   0.2876   0.5904   0.5904   1.3232   1.3232   1.5543   5.1874
     5.1874   5.4254   5.4254   5.5734

     occupation numbers 
     1.0000   1.0000   1.0000   1.0000   1.0000   1.0000   1.0000   1.0000
     1.0000   1.0000   1.0000   1.0000   1.0000   1.0000   1.0000   1.0000
     1.0000   1.0000   1.0000   1.0000   1.0000   1.0000   1.0000   0.0000
     0.0000   0.0000   0.0000   0.0000

          k = 0.0000 0.0963 0.0000 ( 16205 PWs)   bands (ev):

   -58.6019 -33.9881 -33.9875 -33.9769 -33.9744 -33.9366 -33.9364 -33.9274
   -33.9254 -33.9196 -33.9119 -32.7552 -32.6131 -32.6061 -12.6340 -12.0330
    -2.7821   0.1462   0.3441   0.6673   1.2006   1.3682   1.5497   4.6099
     4.6317   5.2234   5.2582   5.9218

     occupation numbers 
     1.0000   1.0000   1.0000   1.0000   1.0000   1.0000   1.0000   1.0000
     1.0000   1.0000   1.0000   1.0000   1.0000   1.0000   1.0000   1.0000
     1.0000   1.0000   1.0000   1.0000   1.0000   1.0000   1.0000   0.0000
     0.0000   0.0000   0.0000   0.0000

          k = 0.0000 0.1926 0.0000 ( 16145 PWs)   bands (ev):

   -58.6005 -33.9860 -33.9837 -33.9808 -33.9709 -33.9380 -33.9374 -33.9326
   -33.9257 -33.9180 -33.9099 -32.7417 -32.6361 -32.6101 -12.4074 -11.8719
    -2.4795  -0.3171  -0.2067   0.8851   0.8986   1.2394   1.4803   3.8005
     3.9466   4.7565   5.4103   6.2426

     occupation numbers 
     1.0000   1.0000   1.0000   1.0000   1.0000   1.0000   1.0000   1.0000
     1.0000   1.0000   1.0000   1.0000   1.0000   1.0000   1.0000   1.0000
     1.0000   1.0000   1.0000   1.0000   1.0000   1.0000   1.0000   0.0000
     0.0000   0.0000   0.0000   0.0000

          k = 0.0000 0.2889 0.0000 ( 16141 PWs)   bands (ev):

   -58.5986 -33.9873 -33.9829 -33.9787 -33.9662 -33.9398 -33.9385 -33.9385
   -33.9262 -33.9162 -33.9072 -32.7236 -32.6674 -32.6155 -12.0686 -11.6328
    -2.0751  -1.1940  -0.7865   0.5416   0.8267   1.2022   1.2809   3.4278
     3.9727   4.2486   5.5470   6.6707

     occupation numbers 
     1.0000   1.0000   1.0000   1.0000   1.0000   1.0000   1.0000   1.0000
     1.0000   1.0000   1.0000   1.0000   1.0000   1.0000   1.0000   1.0000
     1.0000   1.0000   1.0000   1.0000   1.0000   1.0000   1.0000   0.0000
     0.0000   0.0000   0.0000   0.0000

          k = 0.0000 0.3852 0.0000 ( 16110 PWs)   bands (ev):

   -58.5966 -33.9948 -33.9797 -33.9740 -33.9615 -33.9431 -33.9413 -33.9395
   -33.9266 -33.9147 -33.9044 -32.7057 -32.6986 -32.6209 -11.6855 -11.3663
    -2.2654  -1.5381  -1.5019   0.2292   0.5306   1.1337   1.5431   3.4622
     3.8412   4.3960   5.6272   7.1454

     occupation numbers 
     1.0000   1.0000   1.0000   1.0000   1.0000   1.0000   1.0000   1.0000
     1.0000   1.0000   1.0000   1.0000   1.0000   1.0000   1.0000   1.0000
     1.0000   1.0000   1.0000   1.0000   1.0000   1.0000   1.0000   0.0000
     0.0000   0.0000   0.0000   0.0000

          k = 0.0000 0.4815 0.0000 ( 16048 PWs)   bands (ev):

   -58.5952 -34.0008 -33.9772 -33.9708 -33.9581 -33.9458 -33.9421 -33.9401
   -33.9269 -33.9138 -33.9024 -32.7213 -32.6928 -32.6249 -11.3666 -11.1489
    -2.9269  -2.1514  -1.2828   0.0215   0.4067   1.2248   1.8050   3.5984
     3.6581   4.8492   5.6606   6.4481

     occupation numbers 
     1.0000   1.0000   1.0000   1.0000   1.0000   1.0000   1.0000   1.0000
     1.0000   1.0000   1.0000   1.0000   1.0000   1.0000   1.0000   1.0000
     1.0000   1.0000   1.0000   1.0000   1.0000   1.0000   1.0000   0.0000
     0.0000   0.0000   0.0000   0.0000

          k = 0.0000-0.5778 0.0000 ( 16086 PWs)   bands (ev):

   -58.5947 -34.0031 -33.9762 -33.9698 -33.9569 -33.9467 -33.9423 -33.9403
   -33.9270 -33.9135 -33.9016 -32.7296 -32.6881 -32.6263 -11.2393 -11.0636
    -3.1857  -2.3830  -1.2179  -0.0509   0.3750   1.3372   1.9015   3.5231
     3.7905   5.0489   5.6686   5.9304

     occupation numbers 
     1.0000   1.0000   1.0000   1.0000   1.0000   1.0000   1.0000   1.0000
     1.0000   1.0000   1.0000   1.0000   1.0000   1.0000   1.0000   1.0000
     1.0000   1.0000   1.0000   1.0000   1.0000   1.0000   1.0000   0.0000
     0.0000   0.0000   0.0000   0.0000

          k = 0.0834 0.1444 0.0000 ( 16139 PWs)   bands (ev):

   -58.6009 -33.9866 -33.9850 -33.9794 -33.9722 -33.9378 -33.9369 -33.9310
   -33.9257 -33.9185 -33.9105 -32.7460 -32.6284 -32.6092 -12.4810 -11.9241
    -2.5759  -0.0968  -0.0715   0.7999   0.8628   1.4383   1.5155   4.0075
     4.0299   4.8204   5.3504   6.1641

     occupation numbers 
     1.0000   1.0000   1.0000   1.0000   1.0000   1.0000   1.0000   1.0000
     1.0000   1.0000   1.0000   1.0000   1.0000   1.0000   1.0000   1.0000
     1.0000   1.0000   1.0000   1.0000   1.0000   1.0000   1.0000   0.0000
     0.0000   0.0000   0.0000   0.0000

          k = 0.0834 0.2407 0.0000 ( 16139 PWs)   bands (ev):

   -58.5993 -33.9843 -33.9837 -33.9809 -33.9685 -33.9399 -33.9374 -33.9363
   -33.9262 -33.9169 -33.9082 -32.7302 -32.6545 -32.6149 -12.1975 -11.7233
    -2.2097  -0.8348  -0.4575   0.3142   0.9642   1.3070   1.4261   3.4938
     3.7637   4.2892   5.4369   6.5491

     occupation numbers 
     1.0000   1.0000   1.0000   1.0000   1.0000   1.0000   1.0000   1.0000
     1.0000   1.0000   1.0000   1.0000   1.0000   1.0000   1.0000   1.0000
     1.0000   1.0000   1.0000   1.0000   1.0000   1.0000   1.0000   0.0000
     0.0000   0.0000   0.0000   0.0000

          k = 0.0834 0.3370 0.0000 ( 16130 PWs)   bands (ev):

   -58.5973 -33.9911 -33.9804 -33.9762 -33.9642 -33.9423 -33.9411 -33.9376
   -33.9267 -33.9153 -33.9055 -32.7122 -32.6845 -32.6216 -11.8335 -11.4680
    -1.9426  -1.5309  -1.1408  -0.0294   0.8957   0.9435   1.5271   3.3354
     3.9165   4.0374   5.4647   7.0577

     occupation numbers 
     1.0000   1.0000   1.0000   1.0000   1.0000   1.0000   1.0000   1.0000
     1.0000   1.0000   1.0000   1.0000   1.0000   1.0000   1.0000   1.0000
     1.0000   1.0000   1.0000   1.0000   1.0000   1.0000   1.0000   0.0000
     0.0000   0.0000   0.0000   0.0000

          k = 0.0834 0.4333 0.0000 ( 16095 PWs)   bands (ev):

   -58.5956 -33.9978 -33.9774 -33.9724 -33.9606 -33.9442 -33.9442 -33.9376
   -33.9272 -33.9142 -33.9031 -32.7104 -32.6969 -32.6273 -11.4758 -11.2214
    -2.5744  -1.8626  -1.3376  -0.1539   0.6078   0.8211   1.7389   3.4448
     3.7451   4.5193   5.4240   7.1063

     occupation numbers 
     1.0000   1.0000   1.0000   1.0000   1.0000   1.0000   1.0000   1.0000
     1.0000   1.0000   1.0000   1.0000   1.0000   1.0000   1.0000   1.0000
     1.0000   1.0000   1.0000   1.0000   1.0000   1.0000   1.0000   0.0000
     0.0000   0.0000   0.0000   0.0000

          k = 0.0834 0.5296 0.0000 ( 16066 PWs)   bands (ev):

   -58.5947 -34.0019 -33.9756 -33.9703 -33.9586 -33.9456 -33.9451 -33.9374
   -33.9274 -33.9137 -33.9017 -32.7253 -32.6881 -32.6306 -11.2451 -11.0653
    -3.0374  -2.2975  -1.2031  -0.1871   0.4168   0.8850   1.8907   3.5452
     3.8007   4.9473   5.3054   6.1990

     occupation numbers 
     1.0000   1.0000   1.0000   1.0000   1.0000   1.0000   1.0000   1.0000
     1.0000   1.0000   1.0000   1.0000   1.0000   1.0000   1.0000   1.0000
     1.0000   1.0000   1.0000   1.0000   1.0000   1.0000   1.0000   0.0000
     0.0000   0.0000   0.0000   0.0000

          k = 0.1668 0.2889 0.0000 ( 16129 PWs)   bands (ev):

   -58.5976 -33.9892 -33.9801 -33.9776 -33.9659 -33.9428 -33.9400 -33.9367
   -33.9269 -33.9155 -33.9059 -32.7146 -32.6776 -32.6236 -11.8865 -11.5044
    -1.8694  -1.4249  -0.8456  -0.3298   0.6901   1.2226   1.5560   3.2559
     3.7668   3.9004   5.3817   7.0319

     occupation numbers 
     1.0000   1.0000   1.0000   1.0000   1.0000   1.0000   1.0000   1.0000
     1.0000   1.0000   1.0000   1.0000   1.0000   1.0000   1.0000   1.0000
     1.0000   1.0000   1.0000   1.0000   1.0000   1.0000   1.0000   0.0000
     0.0000   0.0000   0.0000   0.0000

          k = 0.1668 0.3852 0.0000 ( 16105 PWs)   bands (ev):

   -58.5959 -33.9948 -33.9765 -33.9742 -33.9635 -33.9458 -33.9425 -33.9356
   -33.9278 -33.9146 -33.9036 -32.6995 -32.6992 -32.6333 -11.5400 -11.2631
    -2.1858  -1.5357  -1.3579  -0.5085   0.2760   0.8787   1.7025   3.2953
     3.7930   4.0348   5.3476   7.5861

     occupation numbers 
     1.0000   1.0000   1.0000   1.0000   1.0000   1.0000   1.0000   1.0000
     1.0000   1.0000   1.0000   1.0000   1.0000   1.0000   1.0000   1.0000
     1.0000   1.0000   1.0000   1.0000   1.0000   1.0000   1.0000   0.0000
     0.0000   0.0000   0.0000   0.0000

          k = 0.1668 0.4815 0.0000 ( 16098 PWs)   bands (ev):

   -58.5947 -33.9993 -33.9747 -33.9709 -33.9619 -33.9481 -33.9437 -33.9344
   -33.9284 -33.9142 -33.9020 -32.7152 -32.6880 -32.6408 -11.2568 -11.0686
    -2.6636  -2.0879  -1.1620  -0.5044   0.0396   0.5267   1.8462   3.5072
     3.8483   4.3061   5.3924   6.8275

     occupation numbers 
     1.0000   1.0000   1.0000   1.0000   1.0000   1.0000   1.0000   1.0000
     1.0000   1.0000   1.0000   1.0000   1.0000   1.0000   1.0000   1.0000
     1.0000   1.0000   1.0000   1.0000   1.0000   1.0000   1.0000   0.0000
     0.0000   0.0000   0.0000   0.0000

          k = 0.1668 0.5778 0.0000 ( 16082 PWs)   bands (ev):

   -58.5942 -34.0010 -33.9742 -33.9695 -33.9613 -33.9489 -33.9440 -33.9339
   -33.9287 -33.9142 -33.9014 -32.7208 -32.6840 -32.6436 -11.1452 -10.9929
    -2.8511  -2.2918  -1.1279  -0.4754  -0.0066   0.3739   1.9488   3.4808
     4.0585   4.4028   5.4410   6.3070

     occupation numbers 
     1.0000   1.0000   1.0000   1.0000   1.0000   1.0000   1.0000   1.0000
     1.0000   1.0000   1.0000   1.0000   1.0000   1.0000   1.0000   1.0000
     1.0000   1.0000   1.0000   1.0000   1.0000   1.0000   1.0000   0.0000
     0.0000   0.0000   0.0000   0.0000

          k = 0.2502 0.4333 0.0000 ( 16100 PWs)   bands (ev):

   -58.5947 -33.9978 -33.9745 -33.9708 -33.9636 -33.9493 -33.9428 -33.9332
   -33.9290 -33.9145 -33.9022 -32.7089 -32.6880 -32.6471 -11.2625 -11.0703
    -2.4014  -1.9482  -1.1131  -0.6971  -0.4463   0.5919   1.8222   3.4752
     3.8725   4.0208   5.4663   7.3734

     occupation numbers 
     1.0000   1.0000   1.0000   1.0000   1.0000   1.0000   1.0000   1.0000
     1.0000   1.0000   1.0000   1.0000   1.0000   1.0000   1.0000   1.0000
     1.0000   1.0000   1.0000   1.0000   1.0000   1.0000   1.0000   0.0000
     0.0000   0.0000   0.0000   0.0000

          k = 0.2502 0.5296 0.0000 ( 16092 PWs)   bands (ev):

   -58.5939 -33.9996 -33.9744 -33.9673 -33.9637 -33.9518 -33.9426 -33.9315
   -33.9298 -33.9147 -33.9014 -32.7126 -32.6816 -32.6567 -11.0904 -10.9513
    -2.4658  -2.2115  -1.1394  -0.7930  -0.7183   0.3399   2.0052   3.3599
     3.9933   4.2778   5.6652   6.7573

     occupation numbers 
     1.0000   1.0000   1.0000   1.0000   1.0000   1.0000   1.0000   1.0000
     1.0000   1.0000   1.0000   1.0000   1.0000   1.0000   1.0000   1.0000
     1.0000   1.0000   1.0000   1.0000   1.0000   1.0000   1.0000   0.0000
     0.0000   0.0000   0.0000   0.0000

          k = 0.3336 0.5778 0.0000 ( 16080 PWs)   bands (ev):

   -58.5937 -33.9996 -33.9747 -33.9650 -33.9645 -33.9539 -33.9420 -33.9304
   -33.9303 -33.9150 -33.9012 -32.7091 -32.6792 -32.6651 -11.0282 -10.9071
    -2.2485  -2.1519  -1.5772  -0.9042  -0.7914   0.2500   2.1251   3.2190
     3.8727   4.5430   5.8112   7.0499

     occupation numbers 
     1.0000   1.0000   1.0000   1.0000   1.0000   1.0000   1.0000   1.0000
     1.0000   1.0000   1.0000   1.0000   1.0000   1.0000   1.0000   1.0000
     1.0000   1.0000   1.0000   1.0000   1.0000   1.0000   1.0003   0.0001
     0.0000   0.0000   0.0000   0.0000

     the Fermi energy is     2.7864 ev

     WARNING: integrated charge=    46.00002172, expected=    46.00000000

!    total energy              =    -560.64122515 Ry
     estimated scf accuracy    <          5.7E-12 Ry
     smearing contrib. (-TS)   =       0.00000025 Ry
     internal energy E=F+TS    =    -560.64122540 Ry

     The total energy is F=E-TS. E is the sum of the following terms:
     one-electron contribution =   -2030.20939890 Ry
     hartree contribution      =    1017.70328421 Ry
     xc contribution           =    -118.99892178 Ry
     ewald contribution        =     570.86381107 Ry

     convergence has been achieved in  21 iterations

     Forces acting on atoms (cartesian axes, Ry/au):

     atom    1 type  2   force =     0.00000000    0.00000000    0.00595699
     atom    2 type  2   force =     0.00000000   -0.00000000   -0.00595699
     atom    3 type  1   force =     0.00000000    0.00000000    0.00000000
     The non-local contrib.  to forces
     atom    1 type  2   force =     0.00000000    0.00000000    0.39855965
     atom    2 type  2   force =     0.00000000    0.00000000   -0.39855965
     atom    3 type  1   force =     0.00000000    0.00000000    0.00000000
     The ionic contribution  to forces
     atom    1 type  2   force =     0.00000008   -0.00000004 -101.63528495
     atom    2 type  2   force =     0.00000008   -0.00000004  101.63528495
     atom    3 type  1   force =    -0.00000016    0.00000009    0.00000000
     The local contribution  to forces
     atom    1 type  2   force =     0.00000364   -0.00000210  101.25850156
     atom    2 type  2   force =     0.00000364   -0.00000210 -101.25850156
     atom    3 type  1   force =    -0.00000000   -0.00000000   -0.00000000
     The core correction contribution to forces
     atom    1 type  2   force =     0.00000019   -0.00000011   -0.01581844
     atom    2 type  2   force =     0.00000019   -0.00000011    0.01581844
     atom    3 type  1   force =     0.00000000   -0.00000000   -0.00000000
     The Hubbard contrib.    to forces
     atom    1 type  2   force =     0.00000000    0.00000000    0.00000000
     atom    2 type  2   force =     0.00000000    0.00000000    0.00000000
     atom    3 type  1   force =     0.00000000    0.00000000    0.00000000
     The SCF correction term to forces
     atom    1 type  2   force =     0.00000000   -0.00000000   -0.00000083
     atom    2 type  2   force =     0.00000000   -0.00000000    0.00000083
     atom    3 type  1   force =    -0.00000000   -0.00000000    0.00000000

     Total force =     0.008424     Total SCF correction =     0.000001


     Computing stress (Cartesian axis) and pressure

          total   stress  (Ry/bohr**3)                   (kbar)     P=       -3.41
  -0.00001829  -0.00000000   0.00000000           -2.69       -0.00        0.00
  -0.00000000  -0.00001829  -0.00000000           -0.00       -2.69       -0.00
   0.00000000   0.00000000  -0.00003294            0.00        0.00       -4.85

     kinetic stress (kbar)  20102.97      0.00     -0.00
                                0.00  20102.97      0.00
                               -0.00     -0.00  20101.51

     local   stress (kbar)-203924.53      0.00     -0.00
                                0.00-203924.53      0.00
                               -0.00      0.00 201014.38

     nonloc. stress (kbar)  -6796.78      0.00      0.00
                                0.00  -6796.78     -0.00
                                0.00      0.00  -6775.33

     hartree stress (kbar) 103720.04      0.00     -0.00
                                0.00 103720.04     -0.00
                               -0.00     -0.00 -94834.80

     exc-cor stress (kbar)   3977.33     -0.00     -0.00
                               -0.00   3977.33      0.00
                               -0.00      0.00   3977.54

     corecor stress (kbar)  -6938.73     -0.00      0.00
                               -0.00  -6938.73      0.00
                                0.00      0.00  -6938.20

     ewald   stress (kbar)  89857.01     -0.00     -0.00
                               -0.00  89857.01      0.00
                               -0.00      0.00-116549.94

     hubbard stress (kbar)      0.00      0.00      0.00
                                0.00      0.00      0.00
                                0.00      0.00      0.00

     DFT-D   stress (kbar)      0.00      0.00      0.00
                                0.00      0.00      0.00
                                0.00      0.00      0.00

     XDM     stress (kbar)      0.00      0.00      0.00
                                0.00      0.00      0.00
                                0.00      0.00      0.00

     dft-nl  stress (kbar)      0.00      0.00      0.00
                                0.00      0.00      0.00
                                0.00      0.00      0.00

     TS-vdW  stress (kbar)      0.00      0.00      0.00
                                0.00      0.00      0.00
                                0.00      0.00      0.00

     MDB     stress (kbar)      0.00      0.00      0.00
                                0.00      0.00      0.00
                                0.00      0.00      0.00

     3D-RISM stress (kbar)      0.00      0.00      0.00
                                0.00      0.00      0.00
                                0.00      0.00      0.00

     Energy error            =      2.8E-04 Ry
     Gradient error          =      6.0E-03 Ry/Bohr
     Cell gradient error     =      4.8E+00 kbar

     number of scf cycles    =   2
     number of bfgs steps    =   1

     enthalpy           old  =    -560.6409436102 Ry
     enthalpy           new  =    -560.6412251517 Ry

     CASE: enthalpy          _new < enthalpy          _old

     new trust radius        =       0.0148355264 bohr
ibrav =      4
 celldm(1) =      6.71502016
 celldm(3) =      5.04839011
Input lattice vectors:
     0.99815608    -0.00000000    -0.00000000
    -0.49907804     0.86442852     0.00000000
    -0.00000000     0.00000000     5.03908127
New lattice vectors in INITIAL alat:
     0.99815608     0.00000000     0.00000000
    -0.49907804     0.86442852     0.00000000
     0.00000000     0.00000000     5.03908127
New lattice vectors in NEW alat (for information only):
     1.00000000     0.00000000     0.00000000
    -0.50000000     0.86602540     0.00000000
     0.00000000     0.00000000     5.04839011
Discrepancy in bohr =     0.000000    0.000000    0.000000
     new conv_thr            =            5.6E-11 Ry

     new unit-cell volume =   1323.80952 a.u.^3 (   196.16833 Ang^3 )
     density =      2.97252 g/cm^3

CELL_PARAMETERS (alat=  6.72742500)
   0.998156078   0.000000000   0.000000000
  -0.499078039   0.864428521   0.000000000
   0.000000000   0.000000000   5.039081270

ATOMIC_POSITIONS (crystal)
Te            0.3333333300        0.6666666700        0.8985786931
Te            0.3333333300        0.6666666700        0.1014213069
Mo            0.0000000000        0.0000000000        0.0000000000



     Writing config-only to output data dir ./MoTe2.save/
     NEW-OLD atomic charge density approx. for the potential

     negative rho (up, down):  2.509E-06 0.000E+00
     extrapolated charge   45.80211, renormalised to   46.00000

     total cpu time spent up to now is      392.1 secs

     Self-consistent Calculation

     iteration #  1     ecut=    80.00 Ry     beta= 0.70
     Davidson diagonalization with overlap

---- Real-time Memory Report at c_bands before calling an iterative solver
          1202 MiB given to the printing process from OS
             0 MiB allocation reported by mallinfo(arena+hblkhd)
         52897 MiB available memory on the node where the printing process lives
------------------
     c_bands:  1 eigenvalues not converged
     ethr =  1.00E-06,  avg # of iterations = 12.1

     negative rho (up, down):  7.158E-07 0.000E+00

     total cpu time spent up to now is      417.5 secs

     WARNING: integrated charge=    46.00019154, expected=    46.00000000

     total energy              =    -560.37142155 Ry
     estimated scf accuracy    <       0.27177083 Ry

     iteration #  2     ecut=    80.00 Ry     beta= 0.70
     Davidson diagonalization with overlap

---- Real-time Memory Report at c_bands before calling an iterative solver
          1202 MiB given to the printing process from OS
             0 MiB allocation reported by mallinfo(arena+hblkhd)
         52967 MiB available memory on the node where the printing process lives
------------------
     ethr =  5.91E-04,  avg # of iterations =  9.2

     total cpu time spent up to now is      433.5 secs

     WARNING: integrated charge=    46.00017708, expected=    46.00000000

     total energy              =    -559.60012354 Ry
     estimated scf accuracy    <      16.95704813 Ry

     iteration #  3     ecut=    80.00 Ry     beta= 0.70
     Davidson diagonalization with overlap

---- Real-time Memory Report at c_bands before calling an iterative solver
          1202 MiB given to the printing process from OS
             0 MiB allocation reported by mallinfo(arena+hblkhd)
         53020 MiB available memory on the node where the printing process lives
------------------
     ethr =  5.91E-04,  avg # of iterations =  9.0

     total cpu time spent up to now is      448.4 secs

     WARNING: integrated charge=    46.00018645, expected=    46.00000000

     total energy              =    -560.63627704 Ry
     estimated scf accuracy    <       0.44401594 Ry

     iteration #  4     ecut=    80.00 Ry     beta= 0.70
     Davidson diagonalization with overlap

---- Real-time Memory Report at c_bands before calling an iterative solver
          1202 MiB given to the printing process from OS
             0 MiB allocation reported by mallinfo(arena+hblkhd)
         53023 MiB available memory on the node where the printing process lives
------------------
     ethr =  5.91E-04,  avg # of iterations =  1.8

     total cpu time spent up to now is      457.0 secs

     WARNING: integrated charge=    46.00014403, expected=    46.00000000

     total energy              =    -560.64428315 Ry
     estimated scf accuracy    <       0.10580506 Ry

     iteration #  5     ecut=    80.00 Ry     beta= 0.70
     Davidson diagonalization with overlap

---- Real-time Memory Report at c_bands before calling an iterative solver
          1202 MiB given to the printing process from OS
             0 MiB allocation reported by mallinfo(arena+hblkhd)
         53023 MiB available memory on the node where the printing process lives
------------------
     ethr =  2.30E-04,  avg # of iterations =  1.7

     total cpu time spent up to now is      465.4 secs

     WARNING: integrated charge=    46.00010585, expected=    46.00000000

     total energy              =    -560.64269422 Ry
     estimated scf accuracy    <       0.05221787 Ry

     iteration #  6     ecut=    80.00 Ry     beta= 0.70
[...]
     5.2563   5.5073   5.5073   5.6304

     occupation numbers 
     1.0000   1.0000   1.0000   1.0000   1.0000   1.0000   1.0000   1.0000
     1.0000   1.0000   1.0000   1.0000   1.0000   1.0000   1.0000   1.0000
     1.0000   1.0000   1.0000   1.0000   1.0000   1.0000   1.0000   0.0000
     0.0000   0.0000   0.0000   0.0000

          k = 0.0000 0.0965 0.0000 ( 16041 PWs)   bands (ev):

   -58.5525 -33.9552 -33.9546 -33.9430 -33.9404 -33.9024 -33.9022 -33.8928
   -33.8907 -33.8850 -33.8767 -32.7109 -32.5660 -32.5588 -12.6351 -12.0129
    -2.7794   0.1828   0.3464   0.6710   1.2169   1.3949   1.5889   4.6761
     4.7054   5.3017   5.3292   5.9764

     occupation numbers 
     1.0000   1.0000   1.0000   1.0000   1.0000   1.0000   1.0000   1.0000
     1.0000   1.0000   1.0000   1.0000   1.0000   1.0000   1.0000   1.0000
     1.0000   1.0000   1.0000   1.0000   1.0000   1.0000   1.0000   0.0000
     0.0000   0.0000   0.0000   0.0000

          k = 0.0000 0.1930 0.0000 ( 15997 PWs)   bands (ev):

   -58.5510 -33.9529 -33.9508 -33.9472 -33.9368 -33.9038 -33.9032 -33.8982
   -33.8910 -33.8834 -33.8747 -32.6967 -32.5898 -32.5628 -12.4056 -11.8511
    -2.4757  -0.3138  -0.1839   0.8919   0.9123   1.2816   1.5157   3.8658
     4.0080   4.8272   5.4865   6.2947

     occupation numbers 
     1.0000   1.0000   1.0000   1.0000   1.0000   1.0000   1.0000   1.0000
     1.0000   1.0000   1.0000   1.0000   1.0000   1.0000   1.0000   1.0000
     1.0000   1.0000   1.0000   1.0000   1.0000   1.0000   1.0000   0.0000
     0.0000   0.0000   0.0000   0.0000

          k = 0.0000 0.2894 0.0000 ( 15969 PWs)   bands (ev):

   -58.5490 -33.9542 -33.9496 -33.9457 -33.9320 -33.9056 -33.9044 -33.9042
   -33.8915 -33.8815 -33.8719 -32.6777 -32.6222 -32.5683 -12.0623 -11.6109
    -2.0721  -1.1863  -0.7732   0.5524   0.8764   1.2141   1.3090   3.4859
     4.0343   4.3111   5.6286   6.7246

     occupation numbers 
     1.0000   1.0000   1.0000   1.0000   1.0000   1.0000   1.0000   1.0000
     1.0000   1.0000   1.0000   1.0000   1.0000   1.0000   1.0000   1.0000
     1.0000   1.0000   1.0000   1.0000   1.0000   1.0000   1.0000   0.0000
     0.0000   0.0000   0.0000   0.0000

          k = 0.0000 0.3859 0.0000 ( 15976 PWs)   bands (ev):

   -58.5470 -33.9622 -33.9461 -33.9410 -33.9272 -33.9088 -33.9071 -33.9055
   -33.8919 -33.8800 -33.8691 -32.6589 -32.6545 -32.5739 -11.6740 -11.3430
    -2.2676  -1.5275  -1.4889   0.2377   0.5780   1.1567   1.5621   3.5170
     3.8955   4.4624   5.7128   7.2012

     occupation numbers 
     1.0000   1.0000   1.0000   1.0000   1.0000   1.0000   1.0000   1.0000
     1.0000   1.0000   1.0000   1.0000   1.0000   1.0000   1.0000   1.0000
     1.0000   1.0000   1.0000   1.0000   1.0000   1.0000   1.0000   0.0000
     0.0000   0.0000   0.0000   0.0000

          k = 0.0000 0.4824 0.0000 ( 15936 PWs)   bands (ev):

   -58.5455 -33.9686 -33.9433 -33.9379 -33.9237 -33.9115 -33.9078 -33.9061
   -33.8922 -33.8790 -33.8669 -32.6780 -32.6454 -32.5779 -11.3502 -11.1243
    -2.9288  -2.1419  -1.2745   0.0284   0.4511   1.2495   1.8318   3.6451
     3.7107   4.9192   5.7483   6.5073

     occupation numbers 
     1.0000   1.0000   1.0000   1.0000   1.0000   1.0000   1.0000   1.0000
     1.0000   1.0000   1.0000   1.0000   1.0000   1.0000   1.0000   1.0000
     1.0000   1.0000   1.0000   1.0000   1.0000   1.0000   1.0000   0.0000
     0.0000   0.0000   0.0000   0.0000

          k = 0.0000-0.5789 0.0000 ( 15910 PWs)   bands (ev):

   -58.5449 -33.9711 -33.9422 -33.9368 -33.9224 -33.9124 -33.9079 -33.9063
   -33.8923 -33.8788 -33.8661 -32.6866 -32.6405 -32.5794 -11.2208 -11.0383
    -3.1886  -2.3740  -1.2116  -0.0446   0.4185   1.3644   1.9321   3.5663
     3.8418   5.1197   5.7570   5.9875

     occupation numbers 
     1.0000   1.0000   1.0000   1.0000   1.0000   1.0000   1.0000   1.0000
     1.0000   1.0000   1.0000   1.0000   1.0000   1.0000   1.0000   1.0000
     1.0000   1.0000   1.0000   1.0000   1.0000   1.0000   1.0000   0.0000
     0.0000   0.0000   0.0000   0.0000

          k = 0.0836 0.1447 0.0000 ( 16017 PWs)   bands (ev):

   -58.5514 -33.9536 -33.9521 -33.9457 -33.9381 -33.9036 -33.9026 -33.8965
   -33.8910 -33.8839 -33.8754 -32.7012 -32.5819 -32.5619 -12.4802 -11.9036
    -2.5723  -0.0942  -0.0443   0.8057   0.8784   1.4747   1.5523   4.0758
     4.0919   4.8916   5.4248   6.2163

     occupation numbers 
     1.0000   1.0000   1.0000   1.0000   1.0000   1.0000   1.0000   1.0000
     1.0000   1.0000   1.0000   1.0000   1.0000   1.0000   1.0000   1.0000
     1.0000   1.0000   1.0000   1.0000   1.0000   1.0000   1.0000   0.0000
     0.0000   0.0000   0.0000   0.0000

          k = 0.0836 0.2412 0.0000 ( 15996 PWs)   bands (ev):

   -58.5497 -33.9510 -33.9505 -33.9479 -33.9343 -33.9058 -33.9032 -33.9019
   -33.8915 -33.8822 -33.8730 -32.6846 -32.6089 -32.5678 -12.1929 -11.7018
    -2.2055  -0.8294  -0.4407   0.3312   0.9762   1.3509   1.4550   3.5548
     3.8222   4.3518   5.5156   6.6017

     occupation numbers 
     1.0000   1.0000   1.0000   1.0000   1.0000   1.0000   1.0000   1.0000
     1.0000   1.0000   1.0000   1.0000   1.0000   1.0000   1.0000   1.0000
     1.0000   1.0000   1.0000   1.0000   1.0000   1.0000   1.0000   0.0000
     0.0000   0.0000   0.0000   0.0000

          k = 0.0836 0.3377 0.0000 ( 15981 PWs)   bands (ev):

   -58.5477 -33.9583 -33.9468 -33.9432 -33.9300 -33.9081 -33.9068 -33.9035
   -33.8920 -33.8805 -33.8702 -32.6657 -32.6400 -32.5746 -11.8240 -11.4452
    -1.9468  -1.5145  -1.1297  -0.0130   0.9140   0.9870   1.5487   3.3915
     3.9718   4.0988   5.5461   7.1121

     occupation numbers 
     1.0000   1.0000   1.0000   1.0000   1.0000   1.0000   1.0000   1.0000
     1.0000   1.0000   1.0000   1.0000   1.0000   1.0000   1.0000   1.0000
     1.0000   1.0000   1.0000   1.0000   1.0000   1.0000   1.0000   0.0000
     0.0000   0.0000   0.0000   0.0000

          k = 0.0836 0.4342 0.0000 ( 15929 PWs)   bands (ev):

   -58.5459 -33.9655 -33.9436 -33.9394 -33.9263 -33.9100 -33.9098 -33.9034
   -33.8925 -33.8795 -33.8677 -32.6668 -32.6496 -32.5805 -11.4611 -11.1971
    -2.5756  -1.8535  -1.3265  -0.1413   0.6501   0.8410   1.7645   3.4976
     3.7942   4.5862   5.5056   7.1675

     occupation numbers 
     1.0000   1.0000   1.0000   1.0000   1.0000   1.0000   1.0000   1.0000
     1.0000   1.0000   1.0000   1.0000   1.0000   1.0000   1.0000   1.0000
     1.0000   1.0000   1.0000   1.0000   1.0000   1.0000   1.0000   0.0000
     0.0000   0.0000   0.0000   0.0000

          k = 0.0836 0.5307 0.0000 ( 15924 PWs)   bands (ev):

   -58.5449 -33.9699 -33.9417 -33.9373 -33.9242 -33.9112 -33.9110 -33.9032
   -33.8928 -33.8790 -33.8663 -32.6822 -32.6404 -32.5839 -11.2268 -11.0400
    -3.0395  -2.2897  -1.1961  -0.1781   0.4597   0.9094   1.9199   3.5914
     3.8505   5.0185   5.3849   6.2587

     occupation numbers 
     1.0000   1.0000   1.0000   1.0000   1.0000   1.0000   1.0000   1.0000
     1.0000   1.0000   1.0000   1.0000   1.0000   1.0000   1.0000   1.0000
     1.0000   1.0000   1.0000   1.0000   1.0000   1.0000   1.0000   0.0000
     0.0000   0.0000   0.0000   0.0000

          k = 0.1671 0.2894 0.0000 ( 15973 PWs)   bands (ev):

   -58.5480 -33.9563 -33.9465 -33.9446 -33.9317 -33.9087 -33.9057 -33.9025
   -33.8923 -33.8808 -33.8706 -32.6682 -32.6328 -32.5767 -11.8778 -11.4818
    -1.8716  -1.4100  -0.8344  -0.3137   0.7062   1.2700   1.5793   3.3125
     3.8238   3.9549   5.4616   7.0853

     occupation numbers 
     1.0000   1.0000   1.0000   1.0000   1.0000   1.0000   1.0000   1.0000
     1.0000   1.0000   1.0000   1.0000   1.0000   1.0000   1.0000   1.0000
     1.0000   1.0000   1.0000   1.0000   1.0000   1.0000   1.0000   0.0000
     0.0000   0.0000   0.0000   0.0000

          k = 0.1671 0.3859 0.0000 ( 15953 PWs)   bands (ev):

   -58.5462 -33.9624 -33.9429 -33.9411 -33.9293 -33.9117 -33.9081 -33.9014
   -33.8932 -33.8798 -33.8683 -32.6555 -32.6521 -32.5866 -11.5263 -11.2390
    -2.1880  -1.5284  -1.3415  -0.4938   0.2906   0.9249   1.7277   3.3489
     3.8417   4.0953   5.4278   7.6379

     occupation numbers 
     1.0000   1.0000   1.0000   1.0000   1.0000   1.0000   1.0000   1.0000
     1.0000   1.0000   1.0000   1.0000   1.0000   1.0000   1.0000   1.0000
     1.0000   1.0000   1.0000   1.0000   1.0000   1.0000   1.0000   0.0000
     0.0000   0.0000   0.0000   0.0000

          k = 0.1671 0.4824 0.0000 ( 15952 PWs)   bands (ev):

   -58.5449 -33.9672 -33.9413 -33.9374 -33.9276 -33.9139 -33.9092 -33.9001
   -33.8938 -33.8795 -33.8666 -32.6718 -32.6404 -32.5943 -11.2388 -11.0433
    -2.6639  -2.0835  -1.1519  -0.4904   0.0574   0.5704   1.8733   3.5573
     3.8965   4.3716   5.4719   6.8919

     occupation numbers 
     1.0000   1.0000   1.0000   1.0000   1.0000   1.0000   1.0000   1.0000
     1.0000   1.0000   1.0000   1.0000   1.0000   1.0000   1.0000   1.0000
     1.0000   1.0000   1.0000   1.0000   1.0000   1.0000   1.0000   0.0000
     0.0000   0.0000   0.0000   0.0000

          k = 0.1671 0.5789 0.0000 ( 15952 PWs)   bands (ev):

   -58.5445 -33.9691 -33.9409 -33.9359 -33.9270 -33.9148 -33.9095 -33.8995
   -33.8940 -33.8795 -33.8660 -32.6777 -32.6361 -32.5971 -11.1254 -10.9671
    -2.8514  -2.2884  -1.1213  -0.4618   0.0142   0.4169   1.9773   3.5239
     4.1127   4.4705   5.5200   6.3682

     occupation numbers 
     1.0000   1.0000   1.0000   1.0000   1.0000   1.0000   1.0000   1.0000
     1.0000   1.0000   1.0000   1.0000   1.0000   1.0000   1.0000   1.0000
     1.0000   1.0000   1.0000   1.0000   1.0000   1.0000   1.0000   0.0000
     0.0000   0.0000   0.0000   0.0000

          k = 0.2507 0.4342 0.0000 ( 15946 PWs)   bands (ev):

   -58.5449 -33.9658 -33.9415 -33.9369 -33.9293 -33.9152 -33.9083 -33.8989
   -33.8944 -33.8798 -33.8667 -32.6654 -32.6403 -32.6007 -11.2447 -11.0449
    -2.4012  -1.9468  -1.0976  -0.6796  -0.4350   0.6367   1.8483   3.5263
     3.9206   4.0828   5.5475   7.4429

     occupation numbers 
     1.0000   1.0000   1.0000   1.0000   1.0000   1.0000   1.0000   1.0000
     1.0000   1.0000   1.0000   1.0000   1.0000   1.0000   1.0000   1.0000
     1.0000   1.0000   1.0000   1.0000   1.0000   1.0000   1.0000   0.0000
     0.0000   0.0000   0.0000   0.0000

          k = 0.2507 0.5307 0.0000 ( 15958 PWs)   bands (ev):

   -58.5442 -33.9677 -33.9416 -33.9333 -33.9294 -33.9178 -33.9080 -33.8971
   -33.8952 -33.8800 -33.8659 -32.6693 -32.6336 -32.6106 -11.0698 -10.9251
    -2.4635  -2.2139  -1.1328  -0.7769  -0.6972   0.3817   2.0334   3.3994
     4.0567   4.3375   5.7486   6.8212

     occupation numbers 
     1.0000   1.0000   1.0000   1.0000   1.0000   1.0000   1.0000   1.0000
     1.0000   1.0000   1.0000   1.0000   1.0000   1.0000   1.0000   1.0000
     1.0000   1.0000   1.0000   1.0000   1.0000   1.0000   1.0000   0.0000
     0.0000   0.0000   0.0000   0.0000

          k = 0.3342 0.5789 0.0000 ( 15942 PWs)   bands (ev):

   -58.5439 -33.9678 -33.9419 -33.9307 -33.9302 -33.9199 -33.9074 -33.8959
   -33.8958 -33.8804 -33.8657 -32.6659 -32.6311 -32.6190 -11.0067 -10.8805
    -2.2546  -2.1452  -1.5737  -0.8904  -0.7653   0.2896   2.1552   3.2533
     3.9353   4.6094   5.8973   7.1195

     occupation numbers 
     1.0000   1.0000   1.0000   1.0000   1.0000   1.0000   1.0000   1.0000
     1.0000   1.0000   1.0000   1.0000   1.0000   1.0000   1.0000   1.0000
     1.0000   1.0000   1.0000   1.0000   1.0000   1.0000   1.0003   0.0001
     0.0000   0.0000   0.0000   0.0000

     the Fermi energy is     2.8253 ev

     WARNING: integrated charge=    46.00001712, expected=    46.00000000

!    total energy              =    -560.64136478 Ry
     estimated scf accuracy    <          5.4E-12 Ry
     smearing contrib. (-TS)   =       0.00000019 Ry
     internal energy E=F+TS    =    -560.64136497 Ry

     The total energy is F=E-TS. E is the sum of the following terms:
     one-electron contribution =   -2035.77313377 Ry
     hartree contribution      =    1020.54981760 Ry
     xc contribution           =    -119.01999073 Ry
     ewald contribution        =     573.60194193 Ry

     convergence has been achieved in  12 iterations

     Forces acting on atoms (cartesian axes, Ry/au):

     atom    1 type  2   force =     0.00000000   -0.00000000   -0.00010874
     atom    2 type  2   force =     0.00000000    0.00000000    0.00010874
     atom    3 type  1   force =     0.00000000    0.00000000    0.00000000
     The non-local contrib.  to forces
     atom    1 type  2   force =     0.00000000    0.00000000    0.39923763
     atom    2 type  2   force =     0.00000000    0.00000000   -0.39923763
     atom    3 type  1   force =     0.00000000    0.00000000    0.00000000
     The ionic contribution  to forces
     atom    1 type  2   force =     0.00000008   -0.00000005 -102.13102122
     atom    2 type  2   force =     0.00000008   -0.00000005  102.13102122
     atom    3 type  1   force =    -0.00000016    0.00000009   -0.00000000
     The local contribution  to forces
     atom    1 type  2   force =     0.00000363   -0.00000209  101.74729847
     atom    2 type  2   force =     0.00000363   -0.00000209 -101.74729847
     atom    3 type  1   force =    -0.00000000   -0.00000000   -0.00000000
     The core correction contribution to forces
     atom    1 type  2   force =     0.00000019   -0.00000011   -0.01560496
     atom    2 type  2   force =     0.00000019   -0.00000011    0.01560496
     atom    3 type  1   force =    -0.00000000    0.00000000    0.00000000
     The Hubbard contrib.    to forces
     atom    1 type  2   force =     0.00000000    0.00000000    0.00000000
     atom    2 type  2   force =     0.00000000    0.00000000    0.00000000
     atom    3 type  1   force =     0.00000000    0.00000000    0.00000000
     The SCF correction term to forces
     atom    1 type  2   force =     0.00000000   -0.00000000   -0.00001864
     atom    2 type  2   force =     0.00000000   -0.00000000    0.00001864
     atom    3 type  1   force =    -0.00000000    0.00000000    0.00000000

     Total force =     0.000154     Total SCF correction =     0.000026
     SCF correction compared to forces is large: reduce conv_thr to get better values


     Computing stress (Cartesian axis) and pressure

          total   stress  (Ry/bohr**3)                   (kbar)     P=       -0.04
   0.00000034   0.00000000   0.00000000            0.05        0.00        0.00
   0.00000000   0.00000034   0.00000000            0.00        0.05        0.00
   0.00000000   0.00000000  -0.00000155            0.00        0.00       -0.23

     kinetic stress (kbar)  20233.67      0.00      0.00
                                0.00  20233.67      0.00
                                0.00      0.00  20234.97

     local   stress (kbar)-205952.74      0.00     -0.00
                                0.00-205952.74      0.00
                               -0.00      0.00 203128.18

     nonloc. stress (kbar)  -6838.69     -0.00      0.00
                               -0.00  -6838.69      0.00
                                0.00      0.00  -6816.90

     hartree stress (kbar) 104732.90     -0.00     -0.00
                               -0.00 104732.90      0.00
                               -0.00      0.00 -95825.92

     exc-cor stress (kbar)   4002.00     -0.00     -0.00
                               -0.00   4002.00     -0.00
                               -0.00     -0.00   4002.21

     corecor stress (kbar)  -6982.98     -0.00      0.00
                               -0.00  -6982.98      0.00
                                0.00      0.00  -6982.46

     ewald   stress (kbar)  90805.91     -0.00     -0.00
                               -0.00  90805.91     -0.00
                               -0.00     -0.00-117740.31

     hubbard stress (kbar)      0.00      0.00      0.00
                                0.00      0.00      0.00
                                0.00      0.00      0.00

     DFT-D   stress (kbar)      0.00      0.00      0.00
                                0.00      0.00      0.00
                                0.00      0.00      0.00

     XDM     stress (kbar)      0.00      0.00      0.00
                                0.00      0.00      0.00
                                0.00      0.00      0.00

     dft-nl  stress (kbar)      0.00      0.00      0.00
                                0.00      0.00      0.00
                                0.00      0.00      0.00

     TS-vdW  stress (kbar)      0.00      0.00      0.00
                                0.00      0.00      0.00
                                0.00      0.00      0.00

     MDB     stress (kbar)      0.00      0.00      0.00
                                0.00      0.00      0.00
                                0.00      0.00      0.00

     3D-RISM stress (kbar)      0.00      0.00      0.00
                                0.00      0.00      0.00
                                0.00      0.00      0.00


     Writing all to output data dir ./MoTe2.save/
 
     init_run     :     19.78s CPU     11.27s WALL (       2 calls)
     electrons    :   3666.95s CPU   1992.03s WALL (      10 calls)
     update_pot   :     46.94s CPU     26.19s WALL (       8 calls)
     forces       :     53.88s CPU     27.39s WALL (      10 calls)
     stress       :    359.02s CPU    182.24s WALL (      10 calls)

     Called by init_run:
     wfcinit      :     10.96s CPU      6.03s WALL (       2 calls)
     wfcinit:atom :      0.20s CPU      0.11s WALL (      38 calls)
     wfcinit:wfcr :      9.76s CPU      5.41s WALL (      38 calls)
     potinit      :      3.57s CPU      1.81s WALL (       2 calls)
     hinit0       :      5.06s CPU      3.30s WALL (       2 calls)

     Called by electrons:
     c_bands      :   3168.21s CPU   1716.42s WALL (     198 calls)
     sum_band     :    466.99s CPU    257.94s WALL (     198 calls)
     v_of_rho     :     24.01s CPU     13.15s WALL (     207 calls)
     v_h          :      1.61s CPU      0.94s WALL (     207 calls)
     v_xc         :     24.52s CPU     13.38s WALL (     227 calls)
     mix_rho      :      7.96s CPU      4.56s WALL (     198 calls)

     Called by c_bands:
     init_us_2    :     55.29s CPU     27.92s WALL (    7942 calls)
     init_us_2:cp :     55.15s CPU     27.89s WALL (    7942 calls)
     cegterg      :   2647.35s CPU   1453.62s WALL (    3762 calls)

     Called by sum_band:
     sum_band:wei :      0.59s CPU      0.31s WALL (     198 calls)
     sum_band:loo :    460.68s CPU    254.16s WALL (     198 calls)
     sum_band:buf :      3.96s CPU      1.90s WALL (    3762 calls)
     sum_band:ini :     26.19s CPU     13.16s WALL (    3762 calls)

     Called by *egterg:
     cdiaghg      :     27.53s CPU     14.57s WALL (   14186 calls)
     cegterg:over :    109.92s CPU     58.15s WALL (   10595 calls)
     cegterg:upda :     64.10s CPU     33.39s WALL (   10595 calls)
     cegterg:last :     90.75s CPU     47.28s WALL (    7234 calls)
     h_psi        :   2291.86s CPU   1265.80s WALL (   14395 calls)
     g_psi        :     16.98s CPU     10.38s WALL (   10595 calls)

     Called by h_psi:
     h_psi:calbec :    135.26s CPU     71.15s WALL (   14395 calls)
     vloc_psi     :   2013.37s CPU   1119.79s WALL (   14395 calls)
     add_vuspsi   :    135.46s CPU     70.49s WALL (   14395 calls)

     General routines
     calbec       :    147.76s CPU     77.60s WALL (   15345 calls)
     fft          :     13.21s CPU      7.98s WALL (    2319 calls)
     ffts         :      1.05s CPU      0.64s WALL (     198 calls)
     fftw         :   2239.05s CPU   1229.20s WALL (  635582 calls)
 
     Parallel routines
 
     PWSCF        :      1h 9m CPU  37m19.94s WALL

 
   This run was terminated on:   3:31:16   9Jan2024            

=------------------------------------------------------------------------------=
   JOB DONE.
=------------------------------------------------------------------------------=
