export BASH_ENV=/etc/profile.d/modules.sh

     Program PWSCF v.7.2 starts on 10Jan2024 at 13:24:51 

     This program is part of the open-source Quantum ESPRESSO suite
     for quantum simulation of materials; please cite
         "P. Giannozzi et al., J. Phys.:Condens. Matter 21 395502 (2009);
         "P. Giannozzi et al., J. Phys.:Condens. Matter 29 465901 (2017);
         "P. Giannozzi et al., J. Chem. Phys. 152 154105 (2020);
          URL http://www.quantum-espresso.org", 
     in publications or presentations arising from this work. More details at
     http://www.quantum-espresso.org/quote

     Parallel version (MPI & OpenMP), running on       2 processor cores
     Number of MPI processes:                 2
     Threads/MPI process:                     1

     MPI processes distributed on     2 nodes
     240855 MiB available memory on the printing compute node when the environment starts
 
     Reading input from opt.in

     Current dimensions of program PWSCF are:
     Max number of different atomic species (ntypx) = 10
     Max number of k-points (npk) =  40000
     Max angular momentum in pseudopotentials (lmaxx) =  4

     File ./MoTe2.bfgs deleted, as requested
 
     R & G space division:  proc/nbgrp/npool/nimage =       2
     Subspace diagonalization in iterative solution of the eigenvalue problem:
     a serial algorithm will be used

 
     Parallelization info
     --------------------
     sticks:   dense  smooth     PW     G-vecs:    dense   smooth      PW
     Min         501     501    141                85921    85921   13111
     Max         502     502    142                85944    85944   13134
     Sum        1003    1003    283               171865   171865   26245
 
     Using Slab Decomposition
 


     bravais-lattice index     =            4
     lattice parameter (alat)  =       6.7274  a.u.
     unit-cell volume          =    1777.6181 (a.u.)^3
     number of atoms/cell      =            3
     number of atomic types    =            2
     number of electrons       =        46.00
     number of Kohn-Sham states=           28
     kinetic-energy cutoff     =      80.0000  Ry
     charge density cutoff     =     320.0000  Ry
     scf convergence threshold =      6.0E-10
     mixing beta               =       0.7000
     number of iterations used =            8  plain     mixing
     energy convergence thresh.=      3.0E-05
     force convergence thresh. =      1.0E-04
     press convergence thresh. =      5.0E-01
     Exchange-correlation= PBE
                           (   1   4   3   4   0   0   0)
     nstep                     =           50


     celldm(1)=   6.727425  celldm(2)=   0.000000  celldm(3)=   6.741573
     celldm(4)=   0.000000  celldm(5)=   0.000000  celldm(6)=   0.000000

     crystal axes: (cart. coord. in units of alat)
               a(1) = (   1.000000   0.000000   0.000000 )  
               a(2) = (  -0.500000   0.866025   0.000000 )  
               a(3) = (   0.000000   0.000000   6.741573 )  

     reciprocal axes: (cart. coord. in units 2 pi/alat)
               b(1) = (  1.000000  0.577350  0.000000 )  
               b(2) = (  0.000000  1.154701  0.000000 )  
               b(3) = (  0.000000  0.000000  0.148333 )  


     PseudoPot. # 1 for Mo read from file:
     ./Mo.upf
     MD5 check sum: 7ca7a9feba7bf08d88d14bc7fbf60c1e
     Pseudo is Norm-conserving + core correction, Zval = 14.0
     Generated using ONCVPSP code by D. R. Hamann
     Using radial grid of 1640 points,  6 beta functions with: 
                l(1) =   0
                l(2) =   0
                l(3) =   1
                l(4) =   1
                l(5) =   2
                l(6) =   2

     PseudoPot. # 2 for Te read from file:
     ./Te.upf
     MD5 check sum: 5809bc2f3532353a97804e96cbe9e3f7
     Pseudo is Norm-conserving + core correction, Zval = 16.0
     Generated using ONCVPSP code by D. R. Hamann
     Using radial grid of 1294 points,  9 beta functions with: 
                l(1) =   0
                l(2) =   0
                l(3) =   0
                l(4) =   1
                l(5) =   1
                l(6) =   2
                l(7) =   2
                l(8) =   3
                l(9) =   3

     atomic species   valence    mass     pseudopotential
        Mo            14.00    95.96000     Mo( 1.00)
        Te            16.00   127.60000     Te( 1.00)

      6 Sym. Ops. (no inversion) found


                                    s                        frac. trans.

      isym =  1     identity                                     

 cryst.   s( 1) = (     1          0          0      )
                  (     0          1          0      )
                  (     0          0          1      )

 cart.    s( 1) = (  1.0000000  0.0000000  0.0000000 )
                  (  0.0000000  1.0000000  0.0000000 )
                  (  0.0000000  0.0000000  1.0000000 )


      isym =  2     120 deg rotation - cryst. axis [0,0,1]       

 cryst.   s( 2) = (     0          1          0      )
                  (    -1         -1          0      )
                  (     0          0          1      )

 cart.    s( 2) = ( -0.5000000 -0.8660254  0.0000000 )
                  (  0.8660254 -0.5000000  0.0000000 )
                  (  0.0000000  0.0000000  1.0000000 )


      isym =  3     120 deg rotation - cryst. axis [0,0,-1]      

 cryst.   s( 3) = (    -1         -1          0      )
                  (     1          0          0      )
                  (     0          0          1      )

 cart.    s( 3) = ( -0.5000000  0.8660254  0.0000000 )
                  ( -0.8660254 -0.5000000  0.0000000 )
                  (  0.0000000  0.0000000  1.0000000 )


      isym =  4     inv. 180 deg rotation - cart. axis [1,0,0]   

 cryst.   s( 4) = (    -1          0          0      )
                  (     1          1          0      )
                  (     0          0          1      )

 cart.    s( 4) = ( -1.0000000  0.0000000  0.0000000 )
                  (  0.0000000  1.0000000  0.0000000 )
                  (  0.0000000  0.0000000  1.0000000 )


      isym =  5     inv. 180 deg rotation - cryst. axis [0,1,0]  

 cryst.   s( 5) = (     1          1          0      )
                  (     0         -1          0      )
                  (     0          0          1      )

 cart.    s( 5) = (  0.5000000  0.8660254  0.0000000 )
                  (  0.8660254 -0.5000000  0.0000000 )
                  (  0.0000000  0.0000000  1.0000000 )


      isym =  6     inv. 180 deg rotation - cryst. axis [1,1,0]  

 cryst.   s( 6) = (     0         -1          0      )
                  (    -1          0          0      )
                  (     0          0          1      )

 cart.    s( 6) = (  0.5000000 -0.8660254  0.0000000 )
                  ( -0.8660254 -0.5000000  0.0000000 )
                  (  0.0000000  0.0000000  1.0000000 )


     point group C_3v (3m)  
     there are  3 classes
     the character table:

       E     2C3   3s_v 
A_1    1.00  1.00  1.00
A_2    1.00  1.00 -1.00
E      2.00 -1.00  0.00

     the symmetry operations in each class and the name of the first element:

     E        1
          identity                                               
     2C3      2    3
          120 deg rotation - cryst. axis [0,0,1]                 
     3s_v     4    5    6
          inv. 180 deg rotation - cart. axis [1,0,0]             

   Cartesian axes

     site n.     atom                  positions (alat units)
         1           Te  tau(   1) = (  -0.0000000   0.5773503   6.0529581  )
         2           Te  tau(   2) = (  -0.0000000   0.5773503   0.6886149  )
         3           Mo  tau(   3) = (   0.5000000   0.2886751   1.0216280  )

   Crystallographic axes

     site n.     atom                  positions (cryst. coord.)
         1           Te  tau(   1) = (  0.3333333  0.6666667  0.8978554  )
         2           Te  tau(   2) = (  0.3333333  0.6666667  0.1021446  )
         3           Mo  tau(   3) = (  0.6666667  0.3333333  0.1515415  )

     number of k points=    19  Marzari-Vanderbilt smearing, width (Ry)=  0.0147
                       cart. coord. in units 2pi/alat
        k(    1) = (   0.0000000   0.0000000   0.0000000), wk =   0.0138889
        k(    2) = (   0.0000000   0.0962250   0.0000000), wk =   0.0833333
        k(    3) = (   0.0000000   0.1924501   0.0000000), wk =   0.0833333
        k(    4) = (   0.0000000   0.2886751   0.0000000), wk =   0.0833333
        k(    5) = (   0.0000000   0.3849002   0.0000000), wk =   0.0833333
        k(    6) = (   0.0000000   0.4811252   0.0000000), wk =   0.0833333
        k(    7) = (   0.0000000  -0.5773503   0.0000000), wk =   0.0416667
        k(    8) = (   0.0833333   0.1443376   0.0000000), wk =   0.0833333
        k(    9) = (   0.0833333   0.2405626   0.0000000), wk =   0.1666667
        k(   10) = (   0.0833333   0.3367877   0.0000000), wk =   0.1666667
        k(   11) = (   0.0833333   0.4330127   0.0000000), wk =   0.1666667
        k(   12) = (   0.0833333   0.5292377   0.0000000), wk =   0.1666667
        k(   13) = (   0.1666667   0.2886751   0.0000000), wk =   0.0833333
        k(   14) = (   0.1666667   0.3849002   0.0000000), wk =   0.1666667
        k(   15) = (   0.1666667   0.4811252   0.0000000), wk =   0.1666667
        k(   16) = (   0.1666667   0.5773503   0.0000000), wk =   0.0833333
        k(   17) = (   0.2500000   0.4330127   0.0000000), wk =   0.0833333
        k(   18) = (   0.2500000   0.5292377   0.0000000), wk =   0.1666667
        k(   19) = (   0.3333333   0.5773503   0.0000000), wk =   0.0277778

                       cryst. coord.
        k(    1) = (   0.0000000   0.0000000   0.0000000), wk =   0.0138889
        k(    2) = (   0.0000000   0.0833333   0.0000000), wk =   0.0833333
        k(    3) = (   0.0000000   0.1666667   0.0000000), wk =   0.0833333
        k(    4) = (   0.0000000   0.2500000   0.0000000), wk =   0.0833333
        k(    5) = (   0.0000000   0.3333333   0.0000000), wk =   0.0833333
        k(    6) = (   0.0000000   0.4166667   0.0000000), wk =   0.0833333
        k(    7) = (   0.0000000  -0.5000000   0.0000000), wk =   0.0416667
        k(    8) = (   0.0833333   0.0833333   0.0000000), wk =   0.0833333
        k(    9) = (   0.0833333   0.1666667   0.0000000), wk =   0.1666667
        k(   10) = (   0.0833333   0.2500000   0.0000000), wk =   0.1666667
        k(   11) = (   0.0833333   0.3333333   0.0000000), wk =   0.1666667
        k(   12) = (   0.0833333   0.4166667   0.0000000), wk =   0.1666667
        k(   13) = (   0.1666667   0.1666667   0.0000000), wk =   0.0833333
        k(   14) = (   0.1666667   0.2500000   0.0000000), wk =   0.1666667
        k(   15) = (   0.1666667   0.3333333   0.0000000), wk =   0.1666667
        k(   16) = (   0.1666667   0.4166667   0.0000000), wk =   0.0833333
        k(   17) = (   0.2500000   0.2500000   0.0000000), wk =   0.0833333
        k(   18) = (   0.2500000   0.3333333   0.0000000), wk =   0.1666667
        k(   19) = (   0.3333333   0.3333333   0.0000000), wk =   0.0277778

     Dense  grid:   171865 G-vectors     FFT dimensions: (  40,  40, 270)

     Dynamical RAM for                 wfc:       4.59 MB

     Dynamical RAM for     wfc (w. buffer):      91.76 MB

     Dynamical RAM for           str. fact:       2.62 MB

     Dynamical RAM for           local pot:       0.00 MB

     Dynamical RAM for          nlocal pot:      13.76 MB

     Dynamical RAM for                qrad:      17.23 MB

     Dynamical RAM for          rho,v,vnew:       8.88 MB

     Dynamical RAM for               rhoin:       2.96 MB

     Dynamical RAM for            rho*nmix:      20.98 MB

     Dynamical RAM for           G-vectors:       5.57 MB

     Dynamical RAM for          h,s,v(r/c):       0.14 MB

     Dynamical RAM for          <psi|beta>:       0.04 MB

     Dynamical RAM for                 psi:       9.18 MB

     Dynamical RAM for                hpsi:       9.18 MB

     Dynamical RAM for      wfcinit/wfcrot:       9.19 MB

     Estimated static dynamical RAM per process >     154.97 MB

     Estimated max dynamical RAM per process >     194.48 MB

     Estimated total dynamical RAM >     388.96 MB

     Initial potential from superposition of free atoms

     starting charge      45.9982, renormalised to      46.0000

     negative rho (up, down):  5.389E-05 0.000E+00
     Starting wfcs are   28 randomized atomic wfcs

     total cpu time spent up to now is       17.8 secs

     Self-consistent Calculation

     iteration #  1     ecut=    80.00 Ry     beta= 0.70
     Davidson diagonalization with overlap

---- Real-time Memory Report at c_bands before calling an iterative solver
           296 MiB given to the printing process from OS
             0 MiB allocation reported by mallinfo(arena+hblkhd)
        240632 MiB available memory on the node where the printing process lives
------------------
     ethr =  1.00E-02,  avg # of iterations =  3.8

     Threshold (ethr) on eigenvalues was too large:
     Diagonalizing with lowered threshold

     Davidson diagonalization with overlap

---- Real-time Memory Report at c_bands before calling an iterative solver
           319 MiB given to the printing process from OS
             0 MiB allocation reported by mallinfo(arena+hblkhd)
        240628 MiB available memory on the node where the printing process lives
------------------
     ethr =  3.79E-04,  avg # of iterations =  3.2

     negative rho (up, down):  8.820E-06 0.000E+00

     total cpu time spent up to now is       80.6 secs

     total energy              =    -560.15826040 Ry
     estimated scf accuracy    <       0.20226376 Ry

     iteration #  2     ecut=    80.00 Ry     beta= 0.70
     Davidson diagonalization with overlap

---- Real-time Memory Report at c_bands before calling an iterative solver
           356 MiB given to the printing process from OS
             0 MiB allocation reported by mallinfo(arena+hblkhd)
        240580 MiB available memory on the node where the printing process lives
------------------
     ethr =  4.40E-04,  avg # of iterations =  5.2

     negative rho (up, down):  7.247E-06 0.000E+00

     total cpu time spent up to now is      114.9 secs

     total energy              =    -559.47635768 Ry
     estimated scf accuracy    <      22.83371771 Ry

     iteration #  3     ecut=    80.00 Ry     beta= 0.70
     Davidson diagonalization with overlap

---- Real-time Memory Report at c_bands before calling an iterative solver
           363 MiB given to the printing process from OS
             0 MiB allocation reported by mallinfo(arena+hblkhd)
        240573 MiB available memory on the node where the printing process lives
------------------
     ethr =  4.40E-04,  avg # of iterations =  4.1

     negative rho (up, down):  4.427E-06 0.000E+00

     total cpu time spent up to now is      146.1 secs

     total energy              =    -560.01731528 Ry
     estimated scf accuracy    <       6.31174904 Ry

     iteration #  4     ecut=    80.00 Ry     beta= 0.70
     Davidson diagonalization with overlap

---- Real-time Memory Report at c_bands before calling an iterative solver
           382 MiB given to the printing process from OS
             0 MiB allocation reported by mallinfo(arena+hblkhd)
        240569 MiB available memory on the node where the printing process lives
------------------
     ethr =  4.40E-04,  avg # of iterations =  4.5

     negative rho (up, down):  2.061E-06 0.000E+00

     total cpu time spent up to now is      177.3 secs

     total energy              =    -560.22892654 Ry
     estimated scf accuracy    <       0.23376196 Ry

     iteration #  5     ecut=    80.00 Ry     beta= 0.70
     Davidson diagonalization with overlap

---- Real-time Memory Report at c_bands before calling an iterative solver
           386 MiB given to the printing process from OS
             0 MiB allocation reported by mallinfo(arena+hblkhd)
        240560 MiB available memory on the node where the printing process lives
------------------
     ethr =  4.40E-04,  avg # of iterations =  2.0

     negative rho (up, down):  7.946E-07 0.000E+00

     total cpu time spent up to now is      204.5 secs

     total energy              =    -560.24910236 Ry
     estimated scf accuracy    <       0.01385044 Ry

     iteration #  6     ecut=    80.00 Ry     beta= 0.70
     Davidson diagonalization with overlap

---- Real-time Memory Report at c_bands before calling an iterative solver
           392 MiB given to the printing process from OS
             0 MiB allocation reported by mallinfo(arena+hblkhd)
        240552 MiB available memory on the node where the printing process lives
------------------
     ethr =  3.01E-05,  avg # of iterations =  4.5

     negative rho (up, down):  6.847E-08 0.000E+00

     total cpu time spent up to now is      233.7 secs

     total energy              =    -560.24998663 Ry
     estimated scf accuracy    <       0.00343965 Ry

     iteration #  7     ecut=    80.00 Ry     beta= 0.70
     Davidson diagonalization with overlap

---- Real-time Memory Report at c_bands before calling an iterative solver
           397 MiB given to the printing process from OS
             0 MiB allocation reported by mallinfo(arena+hblkhd)
        240549 MiB available memory on the node where the printing process lives
------------------
     ethr =  7.48E-06,  avg # of iterations =  4.4

     total cpu time spent up to now is      263.1 secs

     total energy              =    -560.25024494 Ry
     estimated scf accuracy    <       0.00051683 Ry

     iteration #  8     ecut=    80.00 Ry     beta= 0.70
     Davidson diagonalization with overlap

---- Real-time Memory Report at c_bands before calling an iterative solver
           400 MiB given to the printing process from OS
             0 MiB allocation reported by mallinfo(arena+hblkhd)
        240546 MiB available memory on the node where the printing process lives
------------------
     ethr =  1.12E-06,  avg # of iterations =  4.0

     total cpu time spent up to now is      293.3 secs

     total energy              =    -560.25035073 Ry
     estimated scf accuracy    <       0.00006498 Ry

     iteration #  9     ecut=    80.00 Ry     beta= 0.70
     Davidson diagonalization with overlap

---- Real-time Memory Report at c_bands before calling an iterative solver
           405 MiB given to the printing process from OS
             0 MiB allocation reported by mallinfo(arena+hblkhd)
        239504 MiB available memory on the node where the printing process lives
------------------
     ethr =  1.41E-07,  avg # of iterations =  2.4

     total cpu time spent up to now is      320.8 secs

     total energy              =    -560.25035585 Ry
     estimated scf accuracy    <       0.00001673 Ry

     iteration # 10     ecut=    80.00 Ry     beta= 0.70
     Davidson diagonalization with overlap

---- Real-time Memory Report at c_bands before calling an iterative solver
           407 MiB given to the printing process from OS
             0 MiB allocation reported by mallinfo(arena+hblkhd)
        240447 MiB available memory on the node where the printing process lives
------------------
     ethr =  3.64E-08,  avg # of iterations =  2.4

     total cpu time spent up to now is      348.0 secs

     total energy              =    -560.25035728 Ry
     estimated scf accuracy    <       0.00000888 Ry

     iteration # 11     ecut=    80.00 Ry     beta= 0.70
     Davidson diagonalization with overlap

---- Real-time Memory Report at c_bands before calling an iterative solver
           411 MiB given to the printing process from OS
             0 MiB allocation reported by mallinfo(arena+hblkhd)
        240449 MiB available memory on the node where the printing process lives
------------------
     ethr =  1.93E-08,  avg # of iterations =  1.1

     total cpu time spent up to now is      373.2 secs

     total energy              =    -560.25035758 Ry
     estimated scf accuracy    <       0.00000078 Ry

     iteration # 12     ecut=    80.00 Ry     beta= 0.70
     Davidson diagonalization with overlap

---- Real-time Memory Report at c_bands before calling an iterative solver
           412 MiB given to the printing process from OS
             0 MiB allocation reported by mallinfo(arena+hblkhd)
        240443 MiB available memory on the node where the printing process lives
------------------
     ethr =  1.69E-09,  avg # of iterations =  3.8

     total cpu time spent up to now is      401.5 secs

     total energy              =    -560.25035767 Ry
     estimated scf accuracy    <       0.00000002 Ry

     iteration # 13     ecut=    80.00 Ry     beta= 0.70
     Davidson diagonalization with overlap

---- Real-time Memory Report at c_bands before calling an iterative solver
           412 MiB given to the printing process from OS
             0 MiB allocation reported by mallinfo(arena+hblkhd)
        240559 MiB available memory on the node where the printing process lives
------------------
     ethr =  4.29E-11,  avg # of iterations =  4.1

     total cpu time spent up to now is      436.3 secs

     total energy              =    -560.25035768 Ry
     estimated scf accuracy    <          8.8E-09 Ry

     iteration # 14     ecut=    80.00 Ry     beta= 0.70
     Davidson diagonalization with overlap

---- Real-time Memory Report at c_bands before calling an iterative solver
           414 MiB given to the printing process from OS
             0 MiB allocation reported by mallinfo(arena+hblkhd)
        240949 MiB available memory on the node where the printing process lives
------------------
     ethr =  1.91E-11,  avg # of iterations =  2.1

     total cpu time spent up to now is      464.8 secs

     total energy              =    -560.25035768 Ry
     estimated scf accuracy    <       0.00000005 Ry

     iteration # 15     ecut=    80.00 Ry     beta= 0.70
     Davidson diagonalization with overlap

---- Real-time Memory Report at c_bands before calling an iterative solver
           414 MiB given to the printing process from OS
             0 MiB allocation reported by mallinfo(arena+hblkhd)
        241584 MiB available memory on the node where the printing process lives
------------------
     ethr =  1.91E-11,  avg # of iterations =  1.1

     total cpu time spent up to now is      490.0 secs

     End of self-consistent calculation

          k = 0.0000 0.0000 0.0000 ( 21573 PWs)   bands (ev):

   -60.2132 -36.6986 -36.6986 -36.5054 -36.4730 -36.4730 -35.9447 -35.9447
   -35.7641 -35.7641 -35.7170 -34.4376 -34.2494 -34.2494 -15.0987 -13.5966
    -4.8505  -2.9803  -2.9803  -1.6520  -0.0640  -0.0640  -0.0481   2.0872
     2.9450   2.9450   4.2834   4.6924

     occupation numbers 
     1.0000   1.0000   1.0000   1.0000   1.0000   1.0000   1.0000   1.0000
     1.0000   1.0000   1.0000   1.0000   1.0000   1.0000   1.0000   1.0000
     1.0000   1.0000   1.0000   1.0000   1.0457   1.0457   1.0531   0.0000
     0.0000   0.0000   0.0000   0.0000

          k = 0.0000 0.0962 0.0000 ( 21621 PWs)   bands (ev):

   -60.2126 -36.6970 -36.6948 -36.5024 -36.4735 -36.4725 -35.9447 -35.9435
   -35.7645 -35.7642 -35.7164 -34.4414 -34.2604 -34.2527 -15.0354 -13.5276
    -4.7448  -3.1894  -2.9396  -1.5653  -0.3729  -0.0861   0.2701   2.0788
     2.2235   2.7926   4.2665   4.6498

     occupation numbers 
     1.0000   1.0000   1.0000   1.0000   1.0000   1.0000   1.0000   1.0000
     1.0000   1.0000   1.0000   1.0000   1.0000   1.0000   1.0000   1.0000
     1.0000   1.0000   1.0000   1.0000   1.0001   1.0361   0.6051   0.0000
     0.0000   0.0000   0.0000   0.0000

          k = 0.0000 0.1925 0.0000 ( 21533 PWs)   bands (ev):

   -60.2109 -36.6927 -36.6836 -36.4954 -36.4742 -36.4707 -35.9447 -35.9404
   -35.7656 -35.7645 -35.7146 -34.4555 -34.2867 -34.2617 -14.8586 -13.3299
    -4.4785  -3.6466  -2.8435  -1.3135  -0.6853  -0.1009   0.5510   0.6652
     2.1007   2.4190   3.8403   4.8231

     occupation numbers 
     1.0000   1.0000   1.0000   1.0000   1.0000   1.0000   1.0000   1.0000
     1.0000   1.0000   1.0000   1.0000   1.0000   1.0000   1.0000   1.0000
     1.0000   1.0000   1.0000   1.0000   1.0000   1.0302   0.0187   0.0016
     0.0000   0.0000   0.0000   0.0000

          k = 0.0000 0.2887 0.0000 ( 21481 PWs)   bands (ev):

   -60.2085 -36.6872 -36.6663 -36.4900 -36.4724 -36.4678 -35.9447 -35.9360
   -35.7671 -35.7649 -35.7121 -34.4850 -34.3127 -34.2740 -14.6066 -13.0345
    -4.5141  -3.7296  -2.7569  -0.9603  -0.9006  -0.8498   0.0047   0.6362
     1.7990   1.9817   3.9410   4.7466

     occupation numbers 
     1.0000   1.0000   1.0000   1.0000   1.0000   1.0000   1.0000   1.0000
     1.0000   1.0000   1.0000   1.0000   1.0000   1.0000   1.0000   1.0000
     1.0000   1.0000   1.0000   1.0000   1.0000   1.0000   1.0759   0.0031
     0.0000   0.0000   0.0000   0.0000

          k = 0.0000 0.3849 0.0000 ( 21492 PWs)   bands (ev):

   -60.2062 -36.6822 -36.6461 -36.4911 -36.4663 -36.4643 -35.9447 -35.9317
   -35.7686 -35.7653 -35.7096 -34.5254 -34.3280 -34.2865 -14.3405 -12.7016
    -4.9632  -3.3328  -2.7287  -2.1256  -0.9645  -0.4519   0.2967   0.4073
     1.6030   1.6386   4.2609   4.3308

     occupation numbers 
     1.0000   1.0000   1.0000   1.0000   1.0000   1.0000   1.0000   1.0000
     1.0000   1.0000   1.0000   1.0000   1.0000   1.0000   1.0000   1.0000
     1.0000   1.0000   1.0000   1.0000   1.0000   1.0000   0.5055   0.1733
     0.0000   0.0000   0.0000   0.0000

          k = 0.0000 0.4811 0.0000 ( 21404 PWs)   bands (ev):

   -60.2045 -36.6789 -36.6288 -36.4948 -36.4612 -36.4611 -35.9448 -35.9286
   -35.7697 -35.7656 -35.7077 -34.5601 -34.3343 -34.2957 -14.1350 -12.4263
    -5.3064  -3.0957  -2.9835  -2.7430  -0.6187  -0.0652   0.1983   0.6863
     1.3531   1.4841   3.7559   4.0604

     occupation numbers 
     1.0000   1.0000   1.0000   1.0000   1.0000   1.0000   1.0000   1.0000
     1.0000   1.0000   1.0000   1.0000   1.0000   1.0000   1.0000   1.0000
     1.0000   1.0000   1.0000   1.0000   1.0000   1.0451   0.8587   0.0009
     0.0000   0.0000   0.0000   0.0000

          k = 0.0000-0.5774 0.0000 ( 21446 PWs)   bands (ev):

   -60.2038 -36.6778 -36.6217 -36.4967 -36.4601 -36.4592 -35.9448 -35.9274
   -35.7701 -35.7657 -35.7070 -34.5736 -34.3359 -34.2991 -14.0572 -12.3171
    -5.4305  -3.2927  -3.0449  -2.7546  -0.3275   0.0221   0.2613   0.8922
     1.2663   1.2769   3.5120   3.7166

     occupation numbers 
     1.0000   1.0000   1.0000   1.0000   1.0000   1.0000   1.0000   1.0000
     1.0000   1.0000   1.0000   1.0000   1.0000   1.0000   1.0000   1.0000
     1.0000   1.0000   1.0000   1.0000   1.0004   1.0809   0.6384   0.0000
     0.0000   0.0000   0.0000   0.0000

          k = 0.0833 0.1443 0.0000 ( 21547 PWs)   bands (ev):

   -60.2114 -36.6942 -36.6871 -36.4973 -36.4743 -36.4712 -35.9446 -35.9414
   -35.7652 -35.7644 -35.7151 -34.4504 -34.2785 -34.2594 -14.9153 -13.3942
    -4.5516  -3.5170  -2.8850  -1.3959  -0.5780  -0.1379   0.5031   1.1265
     2.1552   2.4462   3.9204   4.7155

     occupation numbers 
     1.0000   1.0000   1.0000   1.0000   1.0000   1.0000   1.0000   1.0000
     1.0000   1.0000   1.0000   1.0000   1.0000   1.0000   1.0000   1.0000
     1.0000   1.0000   1.0000   1.0000   1.0000   1.0183   0.0438   0.0000
     0.0000   0.0000   0.0000   0.0000

          k = 0.0833 0.2406 0.0000 ( 21517 PWs)   bands (ev):

   -60.2094 -36.6898 -36.6725 -36.4903 -36.4750 -36.4684 -35.9444 -35.9379
   -35.7665 -35.7648 -35.7130 -34.4723 -34.3033 -34.2714 -14.7005 -13.1468
    -4.3605  -3.8299  -2.8366  -1.0747  -0.7979  -0.2340  -0.1271   0.6938
     1.8878   1.9443   3.7538   4.7110

     occupation numbers 
     1.0000   1.0000   1.0000   1.0000   1.0000   1.0000   1.0000   1.0000
     1.0000   1.0000   1.0000   1.0000   1.0000   1.0000   1.0000   1.0000
     1.0000   1.0000   1.0000   1.0000   1.0000   1.0035   1.0214   0.0008
     0.0000   0.0000   0.0000   0.0000

          k = 0.0833 0.3368 0.0000 ( 21500 PWs)   bands (ev):

   -60.2070 -36.6849 -36.6534 -36.4877 -36.4719 -36.4645 -35.9442 -35.9338
   -35.7679 -35.7653 -35.7105 -34.5077 -34.3220 -34.2852 -14.4403 -12.8298
    -4.7119  -3.5138  -2.8341  -1.5435  -0.9647  -0.6350   0.1035   0.6200
     1.3612   1.6744   3.9416   4.3872

     occupation numbers 
     1.0000   1.0000   1.0000   1.0000   1.0000   1.0000   1.0000   1.0000
     1.0000   1.0000   1.0000   1.0000   1.0000   1.0000   1.0000   1.0000
     1.0000   1.0000   1.0000   1.0000   1.0000   1.0000   1.0553   0.0045
     0.0000   0.0000   0.0000   0.0000

          k = 0.0833 0.4330 0.0000 ( 21465 PWs)   bands (ev):

   -60.2050 -36.6811 -36.6345 -36.4903 -36.4660 -36.4610 -35.9440 -35.9303
   -35.7692 -35.7657 -35.7083 -34.5455 -34.3317 -34.2971 -14.2024 -12.5197
    -5.1069  -3.1564  -2.8518  -2.5692  -0.8773  -0.1877   0.2391   0.6521
     0.9748   1.5048   3.6832   4.3850

     occupation numbers 
     1.0000   1.0000   1.0000   1.0000   1.0000   1.0000   1.0000   1.0000
     1.0000   1.0000   1.0000   1.0000   1.0000   1.0000   1.0000   1.0000
     1.0000   1.0000   1.0000   1.0000   1.0000   1.0082   0.7206   0.0022
     0.0000   0.0000   0.0000   0.0000

          k = 0.0833 0.5292 0.0000 ( 21428 PWs)   bands (ev):

   -60.2038 -36.6791 -36.6221 -36.4932 -36.4618 -36.4594 -35.9439 -35.9282
   -35.7699 -35.7659 -35.7071 -34.5694 -34.3355 -34.3038 -14.0590 -12.3211
    -5.3319  -3.1411  -3.0411  -2.8462  -0.5345  -0.0053   0.2308   0.7733
     0.9981   1.2740   3.4040   3.9535

     occupation numbers 
     1.0000   1.0000   1.0000   1.0000   1.0000   1.0000   1.0000   1.0000
     1.0000   1.0000   1.0000   1.0000   1.0000   1.0000   1.0000   1.0000
     1.0000   1.0000   1.0000   1.0000   1.0000   1.0723   0.7502   0.0001
     0.0000   0.0000   0.0000   0.0000

          k = 0.1667 0.2887 0.0000 ( 21491 PWs)   bands (ev):

   -60.2073 -36.6865 -36.6556 -36.4840 -36.4764 -36.4644 -35.9435 -35.9350
   -35.7676 -35.7654 -35.7109 -34.5007 -34.3181 -34.2872 -14.4765 -12.8756
    -4.5515  -3.6280  -2.9283  -1.2036  -0.9173  -0.6988   0.0173   0.7309
     1.0358   1.7026   3.6870   4.3927

     occupation numbers 
     1.0000   1.0000   1.0000   1.0000   1.0000   1.0000   1.0000   1.0000
     1.0000   1.0000   1.0000   1.0000   1.0000   1.0000   1.0000   1.0000
     1.0000   1.0000   1.0000   1.0000   1.0000   1.0000   1.0797   0.0003
     0.0000   0.0000   0.0000   0.0000

          k = 0.1667 0.3849 0.0000 ( 21457 PWs)   bands (ev):

   -60.2053 -36.6836 -36.6373 -36.4824 -36.4733 -36.4609 -35.9425 -35.9323
   -35.7686 -35.7660 -35.7087 -34.5341 -34.3277 -34.3035 -14.2419 -12.5743
    -4.8638  -3.2815  -3.0073  -2.0949  -1.0319  -0.2680   0.3039   0.3176
     0.7169   1.4235   3.4657   4.4914

     occupation numbers 
     1.0000   1.0000   1.0000   1.0000   1.0000   1.0000   1.0000   1.0000
     1.0000   1.0000   1.0000   1.0000   1.0000   1.0000   1.0000   1.0000
     1.0000   1.0000   1.0000   1.0000   1.0000   1.0017   0.4791   0.4300
     0.0004   0.0000   0.0000   0.0000

          k = 0.1667 0.4811 0.0000 ( 21464 PWs)   bands (ev):

   -60.2038 -36.6816 -36.6227 -36.4848 -36.4670 -36.4594 -35.9418 -35.9303
   -35.7694 -35.7664 -35.7072 -34.5608 -34.3340 -34.3142 -14.0625 -12.3291
    -5.0960  -3.1985  -2.9067  -2.7419  -0.9277  -0.1443   0.0294   0.2344
     0.9986   1.3022   3.2983   4.3951

     occupation numbers 
     1.0000   1.0000   1.0000   1.0000   1.0000   1.0000   1.0000   1.0000
     1.0000   1.0000   1.0000   1.0000   1.0000   1.0000   1.0000   1.0000
     1.0000   1.0000   1.0000   1.0000   1.0000   1.0167   1.0822   0.7375
     0.0000   0.0000   0.0000   0.0000

          k = 0.1667 0.5774 0.0000 ( 21454 PWs)   bands (ev):

   -60.2033 -36.6809 -36.6170 -36.4860 -36.4637 -36.4597 -35.9415 -35.9296
   -35.7696 -35.7666 -35.7066 -34.5710 -34.3367 -34.3174 -13.9950 -12.2330
    -5.1803  -3.2045  -2.9811  -2.8575  -0.7664  -0.2932  -0.0047   0.3422
     0.7539   1.6215   3.2857   4.0775

     occupation numbers 
     1.0000   1.0000   1.0000   1.0000   1.0000   1.0000   1.0000   1.0000
     1.0000   1.0000   1.0000   1.0000   1.0000   1.0000   1.0000   1.0000
     1.0000   1.0000   1.0000   1.0000   1.0000   1.0010   1.0725   0.3472
     0.0001   0.0000   0.0000   0.0000

          k = 0.2500 0.4330 0.0000 ( 21466 PWs)   bands (ev):

   -60.2038 -36.6829 -36.6229 -36.4763 -36.4740 -36.4594 -35.9403 -35.9318
   -35.7690 -35.7668 -35.7072 -34.5562 -34.3323 -34.3207 -14.0642 -12.3331
    -4.9458  -3.3588  -2.8853  -2.4418  -1.1019  -0.6564   0.0488   0.2623
     0.9448   1.3186   3.2638   4.6434

     occupation numbers 
     1.0000   1.0000   1.0000   1.0000   1.0000   1.0000   1.0000   1.0000
     1.0000   1.0000   1.0000   1.0000   1.0000   1.0000   1.0000   1.0000
     1.0000   1.0000   1.0000   1.0000   1.0000   1.0000   1.0831   0.6345
     0.0000   0.0000   0.0000   0.0000

          k = 0.2500 0.5292 0.0000 ( 21458 PWs)   bands (ev):

   -60.2030 -36.6826 -36.6143 -36.4770 -36.4684 -36.4602 -35.9385 -35.9320
   -35.7691 -35.7674 -35.7064 -34.5686 -34.3400 -34.3261 -13.9590 -12.1838
    -4.9750  -3.4599  -2.7750  -2.5839  -1.2319  -1.0442   0.0010   0.4129
     0.5225   1.8968   3.3077   4.4869

     occupation numbers 
     1.0000   1.0000   1.0000   1.0000   1.0000   1.0000   1.0000   1.0000
     1.0000   1.0000   1.0000   1.0000   1.0000   1.0000   1.0000   1.0000
     1.0000   1.0000   1.0000   1.0000   1.0000   1.0000   1.0746   0.1617
     0.0314   0.0000   0.0000   0.0000

          k = 0.3333 0.5774 0.0000 ( 21462 PWs)   bands (ev):

   -60.2027 -36.6831 -36.6113 -36.4719 -36.4702 -36.4612 -35.9349 -35.9349
   -35.7684 -35.7684 -35.7061 -34.5707 -34.3454 -34.3281 -13.9209 -12.1293
    -4.8935  -3.5839  -2.7213  -2.0734  -2.0727  -1.1003  -0.0351   0.3227
     0.5009   2.1413   3.4233   4.6563

     occupation numbers 
     1.0000   1.0000   1.0000   1.0000   1.0000   1.0000   1.0000   1.0000
     1.0000   1.0000   1.0000   1.0000   1.0000   1.0000   1.0000   1.0000
     1.0000   1.0000   1.0000   1.0000   1.0000   1.0000   1.0592   0.4122
     0.0454   0.0000   0.0000   0.0000

     the Fermi energy is     0.3261 ev

!    total energy              =    -560.25035768 Ry
     estimated scf accuracy    <          2.8E-10 Ry
     smearing contrib. (-TS)   =       0.00009873 Ry
     internal energy E=F+TS    =    -560.25045641 Ry

     The total energy is F=E-TS. E is the sum of the following terms:
     one-electron contribution =   -2342.25023129 Ry
     hartree contribution      =    1170.42557900 Ry
     xc contribution           =    -119.06778744 Ry
     ewald contribution        =     730.64198331 Ry

     convergence has been achieved in  15 iterations

     Forces acting on atoms (cartesian axes, Ry/au):

     atom    1 type  2   force =     0.00000000    0.00000000    0.00398417
     atom    2 type  2   force =     0.00000000    0.00000000   -0.26090607
     atom    3 type  1   force =     0.00000000    0.00000000    0.25692190
     The non-local contrib.  to forces
     atom    1 type  2   force =     0.00000000    0.00000000    0.02138296
     atom    2 type  2   force =     0.00000000    0.00000000    0.19399528
     atom    3 type  1   force =     0.00000000   -0.00000000   -0.27008968
     The ionic contribution  to forces
     atom    1 type  2   force =     0.00000000   -0.00000000  -83.94304159
     atom    2 type  2   force =     0.00000044   -0.00000026   -1.36862785
     atom    3 type  1   force =    -0.00000044    0.00000026   85.31166944
     The local contribution  to forces
     atom    1 type  2   force =     0.00000372   -0.00000215   83.92630502
     atom    2 type  2   force =     0.00000350   -0.00000202    0.92439139
     atom    3 type  1   force =    -0.00000231    0.00000134  -84.79946267
     The core correction contribution to forces
     atom    1 type  2   force =     0.00000019   -0.00000011   -0.00062648
     atom    2 type  2   force =     0.00000019   -0.00000011   -0.01079756
     atom    3 type  1   force =     0.00000005   -0.00000003    0.01479280
     The Hubbard contrib.    to forces
     atom    1 type  2   force =     0.00000000    0.00000000    0.00000000
     atom    2 type  2   force =     0.00000000    0.00000000    0.00000000
     atom    3 type  1   force =     0.00000000    0.00000000    0.00000000
     The SCF correction term to forces
     atom    1 type  2   force =     0.00000000   -0.00000000   -0.00001485
     atom    2 type  2   force =     0.00000000   -0.00000000    0.00015356
     atom    3 type  1   force =    -0.00000000    0.00000000    0.00003289

     Total force =     0.366192     Total SCF correction =     0.000158


     Computing stress (Cartesian axis) and pressure

          total   stress  (Ry/bohr**3)                   (kbar)     P=       38.55
   0.00024259   0.00000000   0.00000000           35.69        0.00        0.00
   0.00000000   0.00024259   0.00000000            0.00       35.69        0.00
   0.00000000   0.00000000   0.00030098            0.00        0.00       44.28

     kinetic stress (kbar)  15068.62      0.00      0.00
                                0.00  15068.62      0.00
                                0.00      0.00  15146.15

     local   stress (kbar)-178814.90     -0.00      0.00
                               -0.00-178814.90     -0.00
                                0.00     -0.00 177056.49

     nonloc. stress (kbar)  -5097.23      0.00     -0.00
                                0.00  -5097.23     -0.00
                                0.00      0.00  -5068.59

     hartree stress (kbar)  90289.82     -0.00     -0.00
                               -0.00  90289.82     -0.00
                               -0.00     -0.00 -83722.20

     exc-cor stress (kbar)   2974.68      0.00     -0.00
                                0.00   2974.68      0.00
                               -0.00      0.00   2968.80

     corecor stress (kbar)  -5190.17      0.00     -0.00
                                0.00  -5190.17      0.00
                               -0.00      0.00  -5190.24

     ewald   stress (kbar)  80804.86      0.00     -0.00
                                0.00  80804.86      0.00
                               -0.00      0.00-101146.14

     hubbard stress (kbar)      0.00      0.00      0.00
                                0.00      0.00      0.00
                                0.00      0.00      0.00

     DFT-D   stress (kbar)      0.00      0.00      0.00
                                0.00      0.00      0.00
                                0.00      0.00      0.00

     XDM     stress (kbar)      0.00      0.00      0.00
                                0.00      0.00      0.00
                                0.00      0.00      0.00

     dft-nl  stress (kbar)      0.00      0.00      0.00
                                0.00      0.00      0.00
                                0.00      0.00      0.00

     TS-vdW  stress (kbar)      0.00      0.00      0.00
                                0.00      0.00      0.00
                                0.00      0.00      0.00

     MDB     stress (kbar)      0.00      0.00      0.00
                                0.00      0.00      0.00
                                0.00      0.00      0.00

     3D-RISM stress (kbar)      0.00      0.00      0.00
                                0.00      0.00      0.00
                                0.00      0.00      0.00


     BFGS Geometry Optimization
     Energy error            =      0.0E+00 Ry
     Gradient error          =      2.6E-01 Ry/Bohr
     Cell gradient error     =      4.4E+01 kbar

     number of scf cycles    =   1
     number of bfgs steps    =   0

     enthalpy           new  =    -560.2503576811 Ry

     new trust radius        =       0.2609060681 bohr
ibrav =      4
 celldm(1) =      6.76822433
 celldm(3) =      6.75135543
Input lattice vectors:
     1.00606463     0.00000000     0.00000000
    -0.50303231     0.87127752     0.00000000
     0.00000000     0.00000000     6.79229989
New lattice vectors in INITIAL alat:
     1.00606463     0.00000000     0.00000000
    -0.50303231     0.87127752     0.00000000
     0.00000000     0.00000000     6.79229989
New lattice vectors in NEW alat (for information only):
     1.00000000     0.00000000     0.00000000
    -0.50000000     0.86602540     0.00000000
     0.00000000     0.00000000     6.75135543
Discrepancy in bohr =     0.000000    0.000000    0.000000
     new conv_thr            =       0.0000000006 Ry

     new unit-cell volume =   1812.78308 a.u.^3 (   268.62674 Ang^3 )
     density =      2.17073 g/cm^3

CELL_PARAMETERS (alat=  6.72742500)
   1.006064627   0.000000000   0.000000000
  -0.503032314   0.871277525   0.000000000
   0.000000000   0.000000000   6.792299886

ATOMIC_POSITIONS (crystal)
Te            0.3333333300        0.6666666700        0.8979432971
Te            0.3333333300        0.6666666700        0.0963918189
Mo            0.6666666700        0.3333333300        0.1572063739



     Writing config-only to output data dir ./MoTe2.save/
     NEW-OLD atomic charge density approx. for the potential

     negative rho (up, down):  6.175E-05 0.000E+00
     extrapolated charge   46.89229, renormalised to   46.00000

     total cpu time spent up to now is      561.1 secs

     Self-consistent Calculation

     iteration #  1     ecut=    80.00 Ry     beta= 0.70
     Davidson diagonalization with overlap

---- Real-time Memory Report at c_bands before calling an iterative solver
          1477 MiB given to the printing process from OS
             0 MiB allocation reported by mallinfo(arena+hblkhd)
        242922 MiB available memory on the node where the printing process lives
------------------
     c_bands:  5 eigenvalues not converged
     c_bands:  3 eigenvalues not converged
     c_bands:  4 eigenvalues not converged
     c_bands:  1 eigenvalues not converged
     c_bands:  5 eigenvalues not converged
     c_bands:  5 eigenvalues not converged
     c_bands:  5 eigenvalues not converged
     c_bands:  5 eigenvalues not converged
     c_bands:  5 eigenvalues not converged
     c_bands:  5 eigenvalues not converged
     ethr =  1.00E-06,  avg # of iterations = 24.5

     total cpu time spent up to now is      724.3 secs

     total energy              =    -233.53940779 Ry
     estimated scf accuracy    <     353.73387919 Ry

     iteration #  2     ecut=    80.00 Ry     beta= 0.70
     Davidson diagonalization with overlap

---- Real-time Memory Report at c_bands before calling an iterative solver
          1477 MiB given to the printing process from OS
             0 MiB allocation reported by mallinfo(arena+hblkhd)
        243152 MiB available memory on the node where the printing process lives
------------------
     c_bands:  3 eigenvalues not converged
     c_bands:  5 eigenvalues not converged
     ethr =  1.00E-02,  avg # of iterations = 26.8

     total cpu time spent up to now is      885.8 secs

     total energy              =    -463.71816233 Ry
     estimated scf accuracy    <     919.16684354 Ry

     iteration #  3     ecut=    80.00 Ry     beta= 0.70
     Davidson diagonalization with overlap

---- Real-time Memory Report at c_bands before calling an iterative solver
          1477 MiB given to the printing process from OS
             0 MiB allocation reported by mallinfo(arena+hblkhd)
        243126 MiB available memory on the node where the printing process lives
------------------
     c_bands:  2 eigenvalues not converged
     c_bands:  5 eigenvalues not converged
     c_bands:  3 eigenvalues not converged
     c_bands:  1 eigenvalues not converged
     c_bands:  4 eigenvalues not converged
     c_bands:  3 eigenvalues not converged
     c_bands:  2 eigenvalues not converged
     c_bands:  2 eigenvalues not converged
     c_bands:  5 eigenvalues not converged
     c_bands:  2 eigenvalues not converged
     ethr =  1.00E-02,  avg # of iterations = 39.7

     total cpu time spent up to now is     1178.1 secs

     total energy              =    -436.51716942 Ry
     estimated scf accuracy    <    2286.55944565 Ry

     iteration #  4     ecut=    80.00 Ry     beta= 0.70
     Davidson diagonalization with overlap

---- Real-time Memory Report at c_bands before calling an iterative solver
          1477 MiB given to the printing process from OS
             0 MiB allocation reported by mallinfo(arena+hblkhd)
        243126 MiB available memory on the node where the printing process lives
------------------
     ethr =  1.00E-02,  avg # of iterations = 33.2

     total cpu time spent up to now is     1417.5 secs

     total energy              =    -603.27226086 Ry
     estimated scf accuracy    <     179.04081252 Ry

     iteration #  5     ecut=    80.00 Ry     beta= 0.70
     Davidson diagonalization with overlap

---- Real-time Memory Report at c_bands before calling an iterative solver
          1477 MiB given to the printing process from OS
             0 MiB allocation reported by mallinfo(arena+hblkhd)
        243127 MiB available memory on the node where the printing process lives
------------------
     ethr =  1.00E-02,  avg # of iterations =  5.0

     total cpu time spent up to now is     1450.6 secs

     total energy              =    -597.76794672 Ry
     estimated scf accuracy    <      83.48093746 Ry

     iteration #  6     ecut=    80.00 Ry     beta= 0.70
     Davidson diagonalization with overlap

---- Real-time Memory Report at c_bands before calling an iterative solver
          1477 MiB given to the printing process from OS
             0 MiB allocation reported by mallinfo(arena+hblkhd)
        243142 MiB available memory on the node where the printing process lives
------------------
     ethr =  1.00E-02,  avg # of iterations =  1.1

     total cpu time spent up to now is     1475.7 secs

     total energy              =    -566.47759022 Ry
     estimated scf accuracy    <      74.04514041 Ry

     iteration #  7     ecut=    80.00 Ry     beta= 0.70
     Davidson diagonalization with overlap

---- Real-time Memory Report at c_bands before calling an iterative solver
          1477 MiB given to the printing process from OS
             0 MiB allocation reported by mallinfo(arena+hblkhd)
        243165 MiB available memory on the node where the printing process lives
------------------
     c_bands:  1 eigenvalues not converged
     ethr =  1.00E-02,  avg # of iterations = 14.7

     total cpu time spent up to now is     1528.5 secs

     total energy              =    -573.91852918 Ry
     estimated scf accuracy    <      64.79575320 Ry

     iteration #  8     ecut=    80.00 Ry     beta= 0.70
     Davidson diagonalization with overlap

---- Real-time Memory Report at c_bands before calling an iterative solver
          1477 MiB given to the printing process from OS
             0 MiB allocation reported by mallinfo(arena+hblkhd)
        243185 MiB available memory on the node where the printing process lives
------------------
     ethr =  1.00E-02,  avg # of iterations =  1.5

     total cpu time spent up to now is     1554.1 secs

     total energy              =    -573.46974823 Ry
     estimated scf accuracy    <      26.41907097 Ry

     iteration #  9     ecut=    80.00 Ry     beta= 0.70
     Davidson diagonalization with overlap

---- Real-time Memory Report at c_bands before calling an iterative solver
          1477 MiB given to the printing process from OS
             0 MiB allocation reported by mallinfo(arena+hblkhd)
        243350 MiB available memory on the node where the printing process lives
------------------
     ethr =  1.00E-02,  avg # of iterations =  1.1

     total cpu time spent up to now is     1579.1 secs

     total energy              =    -570.04583726 Ry
     estimated scf accuracy    <      16.89177049 Ry

     iteration # 10     ecut=    80.00 Ry     beta= 0.70
     Davidson diagonalization with overlap

---- Real-time Memory Report at c_bands before calling an iterative solver
          1477 MiB given to the printing process from OS
             0 MiB allocation reported by mallinfo(arena+hblkhd)
        243326 MiB available memory on the node where the printing process lives
------------------
     ethr =  1.00E-02,  avg # of iterations =  1.0

     negative rho (up, down):  8.461E-06 0.000E+00

     total cpu time spent up to now is     1604.1 secs

     total energy              =    -559.71000002 Ry
     estimated scf accuracy    <      19.77441856 Ry

     iteration # 11     ecut=    80.00 Ry     beta= 0.70
     Davidson diagonalization with overlap

---- Real-time Memory Report at c_bands before calling an iterative solver
          1477 MiB given to the printing process from OS
             0 MiB allocation reported by mallinfo(arena+hblkhd)
        243331 MiB available memory on the node where the printing process lives
------------------
     ethr =  1.00E-02,  avg # of iterations = 10.7

     negative rho (up, down):  3.979E-02 0.000E+00

     total cpu time spent up to now is     1658.9 secs

     total energy              =    -550.79082395 Ry
     estimated scf accuracy    <     224.36073215 Ry

     iteration # 12     ecut=    80.00 Ry     beta= 0.70
     Davidson diagonalization with overlap

---- Real-time Memory Report at c_bands before calling an iterative solver
          1477 MiB given to the printing process from OS
             0 MiB allocation reported by mallinfo(arena+hblkhd)
        243353 MiB available memory on the node where the printing process lives
------------------
     ethr =  1.00E-02,  avg # of iterations =  9.5

     total cpu time spent up to now is     1712.1 secs

     total energy              =    -558.00179573 Ry
     estimated scf accuracy    <      80.74833775 Ry

     iteration # 13     ecut=    80.00 Ry     beta= 0.70
     Davidson diagonalization with overlap

---- Real-time Memory Report at c_bands before calling an iterative solver
          1477 MiB given to the printing process from OS
             0 MiB allocation reported by mallinfo(arena+hblkhd)
        243334 MiB available memory on the node where the printing process lives
------------------
     ethr =  1.00E-02,  avg # of iterations =  6.1

     negative rho (up, down):  1.017E-02 0.000E+00

     total cpu time spent up to now is     1747.9 secs

     total energy              =    -560.49284436 Ry
     estimated scf accuracy    <      18.18552830 Ry

     iteration # 14     ecut=    80.00 Ry     beta= 0.70
     Davidson diagonalization with overlap

---- Real-time Memory Report at c_bands before calling an iterative solver
          1477 MiB given to the printing process from OS
             0 MiB allocation reported by mallinfo(arena+hblkhd)
        243354 MiB available memory on the node where the printing process lives
------------------
     ethr =  1.00E-02,  avg # of iterations =  2.2

     negative rho (up, down):  7.441E-02 0.000E+00

     total cpu time spent up to now is     1774.0 secs

     total energy              =    -559.85798137 Ry
     estimated scf accuracy    <       8.19910195 Ry

     iteration # 15     ecut=    80.00 Ry     beta= 0.70
     Davidson diagonalization with overlap

---- Real-time Memory Report at c_bands before calling an iterative solver
          1477 MiB given to the printing process from OS
             0 MiB allocation reported by mallinfo(arena+hblkhd)
        243354 MiB available memory on the node where the printing process lives
------------------
     ethr =  1.00E-02,  avg # of iterations =  3.6

     negative rho (up, down):  7.490E-02 0.000E+00

     total cpu time spent up to now is     1802.6 secs

     total energy              =    -560.64027134 Ry
     estimated scf accuracy    <       1.30910912 Ry

     iteration # 16     ecut=    80.00 Ry     beta= 0.70
     Davidson diagonalization with overlap

---- Real-time Memory Report at c_bands before calling an iterative solver
          1477 MiB given to the printing process from OS
             0 MiB allocation reported by mallinfo(arena+hblkhd)
        243334 MiB available memory on the node where the printing process lives
------------------
     ethr =  2.85E-03,  avg # of iterations =  3.1

     negative rho (up, down):  2.429E-02 0.000E+00

     total cpu time spent up to now is     1830.3 secs

     total energy              =    -560.76686799 Ry
     estimated scf accuracy    <       3.74015686 Ry

     iteration # 17     ecut=    80.00 Ry     beta= 0.70
     Davidson diagonalization with overlap

---- Real-time Memory Report at c_bands before calling an iterative solver
          1477 MiB given to the printing process from OS
             0 MiB allocation reported by mallinfo(arena+hblkhd)
        243334 MiB available memory on the node where the printing process lives
------------------
     ethr =  2.85E-03,  avg # of iterations =  1.5

     negative rho (up, down):  1.165E-02 0.000E+00

     total cpu time spent up to now is     1856.3 secs

     total energy              =    -560.72586349 Ry
     estimated scf accuracy    <       3.38104740 Ry

     iteration # 18     ecut=    80.00 Ry     beta= 0.70
     Davidson diagonalization with overlap

---- Real-time Memory Report at c_bands before calling an iterative solver
          1477 MiB given to the printing process from OS
             0 MiB allocation reported by mallinfo(arena+hblkhd)
        243359 MiB available memory on the node where the printing process lives
------------------
     ethr =  2.85E-03,  avg # of iterations =  1.3

     negative rho (up, down):  4.397E-02 0.000E+00

     total cpu time spent up to now is     1881.6 secs

     total energy              =    -560.70074123 Ry
     estimated scf accuracy    <       2.98981266 Ry

     iteration # 19     ecut=    80.00 Ry     beta= 0.70
     Davidson diagonalization with overlap

---- Real-time Memory Report at c_bands before calling an iterative solver
          1477 MiB given to the printing process from OS
             0 MiB allocation reported by mallinfo(arena+hblkhd)
        243360 MiB available memory on the node where the printing process lives
------------------
     ethr =  2.85E-03,  avg # of iterations =  2.4

     total cpu time spent up to now is     1907.7 secs

     total energy              =    -560.26022665 Ry
     estimated scf accuracy    <       6.34573705 Ry

     iteration # 20     ecut=    80.00 Ry     beta= 0.70
     Davidson diagonalization with overlap

---- Real-time Memory Report at c_bands before calling an iterative solver
          1477 MiB given to the printing process from OS
             0 MiB allocation reported by mallinfo(arena+hblkhd)
        243340 MiB available memory on the node where the printing process lives
------------------
     ethr =  2.85E-03,  avg # of iterations =  2.1

     total cpu time spent up to now is     1933.5 secs

     total energy              =    -560.25344527 Ry
     estimated scf accuracy    <       1.97332649 Ry

     iteration # 21     ecut=    80.00 Ry     beta= 0.70
     Davidson diagonalization with overlap

---- Real-time Memory Report at c_bands before calling an iterative solver
          1477 MiB given to the printing process from OS
             0 MiB allocation reported by mallinfo(arena+hblkhd)
        243336 MiB available memory on the node where the printing process lives
------------------
     ethr =  2.85E-03,  avg # of iterations =  2.5

     negative rho (up, down):  1.006E-02 0.000E+00

     total cpu time spent up to now is     1960.2 secs

     total energy              =    -560.50569523 Ry
     estimated scf accuracy    <       0.89862127 Ry

     iteration # 22     ecut=    80.00 Ry     beta= 0.70
     Davidson diagonalization with overlap

---- Real-time Memory Report at c_bands before calling an iterative solver
          1477 MiB given to the printing process from OS
             0 MiB allocation reported by mallinfo(arena+hblkhd)
        243360 MiB available memory on the node where the printing process lives
------------------
     ethr =  1.95E-03,  avg # of iterations =  3.1

     total cpu time spent up to now is     1987.1 secs

     total energy              =    -560.41971748 Ry
     estimated scf accuracy    <       9.88219600 Ry

     iteration # 23     ecut=    80.00 Ry     beta= 0.70
     Davidson diagonalization with overlap

---- Real-time Memory Report at c_bands before calling an iterative solver
          1477 MiB given to the printing process from OS
             0 MiB allocation reported by mallinfo(arena+hblkhd)
        243360 MiB available memory on the node where the printing process lives
------------------
     ethr =  1.95E-03,  avg # of iterations =  1.1

     negative rho (up, down):  3.890E-03 0.000E+00

     total cpu time spent up to now is     2012.2 secs

     total energy              =    -560.20243739 Ry
     estimated scf accuracy    <       4.23348812 Ry

     iteration # 24     ecut=    80.00 Ry     beta= 0.70
     Davidson diagonalization with overlap

---- Real-time Memory Report at c_bands before calling an iterative solver
          1477 MiB given to the printing process from OS
             0 MiB allocation reported by mallinfo(arena+hblkhd)
        243343 MiB available memory on the node where the printing process lives
------------------
     ethr =  1.95E-03,  avg # of iterations =  1.4

     negative rho (up, down):  2.740E-03 0.000E+00

     total cpu time spent up to now is     2037.5 secs

     total energy              =    -560.29281863 Ry
     estimated scf accuracy    <       1.01567446 Ry

     iteration # 25     ecut=    80.00 Ry     beta= 0.70
     Davidson diagonalization with overlap

---- Real-time Memory Report at c_bands before calling an iterative solver
          1477 MiB given to the printing process from OS
             0 MiB allocation reported by mallinfo(arena+hblkhd)
        243342 MiB available memory on the node where the printing process lives
------------------
     ethr =  1.95E-03,  avg # of iterations =  1.0

     negative rho (up, down):  2.517E-03 0.000E+00

     total cpu time spent up to now is     2062.6 secs

     total energy              =    -560.37077714 Ry
     estimated scf accuracy    <       0.85786676 Ry

     iteration # 26     ecut=    80.00 Ry     beta= 0.70
     Davidson diagonalization with overlap

---- Real-time Memory Report at c_bands before calling an iterative solver
          1477 MiB given to the printing process from OS
             0 MiB allocation reported by mallinfo(arena+hblkhd)
        243362 MiB available memory on the node where the printing process lives
------------------
     ethr =  1.86E-03,  avg # of iterations =  1.0

     negative rho (up, down):  8.714E-07 0.000E+00

     total cpu time spent up to now is     2087.6 secs

     total energy              =    -560.36741172 Ry
     estimated scf accuracy    <       0.72492889 Ry

     iteration # 27     ecut=    80.00 Ry     beta= 0.70
     Davidson diagonalization with overlap

---- Real-time Memory Report at c_bands before calling an iterative solver
          1477 MiB given to the printing process from OS
             0 MiB allocation reported by mallinfo(arena+hblkhd)
        243362 MiB available memory on the node where the printing process lives
------------------
     ethr =  1.58E-03,  avg # of iterations =  1.0

     negative rho (up, down):  6.377E-05 0.000E+00

     total cpu time spent up to now is     2112.6 secs

     total energy              =    -560.33615720 Ry
     estimated scf accuracy    <       0.87158516 Ry

     iteration # 28     ecut=    80.00 Ry     beta= 0.70
     Davidson diagonalization with overlap

---- Real-time Memory Report at c_bands before calling an iterative solver
          1477 MiB given to the printing process from OS
             0 MiB allocation reported by mallinfo(arena+hblkhd)
        243336 MiB available memory on the node where the printing process lives
------------------
     ethr =  1.58E-03,  avg # of iterations =  1.0

     negative rho (up, down):  1.771E-04 0.000E+00

     total cpu time spent up to now is     2137.6 secs

     total energy              =    -560.34862179 Ry
     estimated scf accuracy    <       0.00155813 Ry

     iteration # 29     ecut=    80.00 Ry     beta= 0.70
     Davidson diagonalization with overlap

---- Real-time Memory Report at c_bands before calling an iterative solver
          1477 MiB given to the printing process from OS
             0 MiB allocation reported by mallinfo(arena+hblkhd)
        243340 MiB available memory on the node where the printing process lives
------------------
     ethr =  3.39E-06,  avg # of iterations =  8.3

     negative rho (up, down):  1.240E-04 0.000E+00

     total cpu time spent up to now is     2170.3 secs

     total energy              =    -560.34875460 Ry
     estimated scf accuracy    <       0.00665743 Ry

     iteration # 30     ecut=    80.00 Ry     beta= 0.70
     Davidson diagonalization with overlap

---- Real-time Memory Report at c_bands before calling an iterative solver
          1477 MiB given to the printing process from OS
             0 MiB allocation reported by mallinfo(arena+hblkhd)
        243353 MiB available memory on the node where the printing process lives
------------------
     ethr =  3.39E-06,  avg # of iterations =  1.0

     negative rho (up, down):  2.244E-05 0.000E+00

     total cpu time spent up to now is     2195.3 secs

     total energy              =    -560.34836500 Ry
     estimated scf accuracy    <       0.00586643 Ry

     iteration # 31     ecut=    80.00 Ry     beta= 0.70
     Davidson diagonalization with overlap

---- Real-time Memory Report at c_bands before calling an iterative solver
          1477 MiB given to the printing process from OS
             0 MiB allocation reported by mallinfo(arena+hblkhd)
        243364 MiB available memory on the node where the printing process lives
------------------
     ethr =  3.39E-06,  avg # of iterations =  1.2

     negative rho (up, down):  4.499E-05 0.000E+00

     total cpu time spent up to now is     2220.4 secs

     total energy              =    -560.34855408 Ry
     estimated scf accuracy    <       0.00638909 Ry

     iteration # 32     ecut=    80.00 Ry     beta= 0.70
     Davidson diagonalization with overlap

---- Real-time Memory Report at c_bands before calling an iterative solver
          1477 MiB given to the printing process from OS
             0 MiB allocation reported by mallinfo(arena+hblkhd)
        243345 MiB available memory on the node where the printing process lives
------------------
     ethr =  3.39E-06,  avg # of iterations =  1.0

     negative rho (up, down):  8.652E-06 0.000E+00

     total cpu time spent up to now is     2245.4 secs

     total energy              =    -560.34862456 Ry
     estimated scf accuracy    <       0.00002924 Ry

     iteration # 33     ecut=    80.00 Ry     beta= 0.70
     Davidson diagonalization with overlap

---- Real-time Memory Report at c_bands before calling an iterative solver
          1477 MiB given to the printing process from OS
             0 MiB allocation reported by mallinfo(arena+hblkhd)
        243344 MiB available memory on the node where the printing process lives
------------------
     ethr =  6.36E-08,  avg # of iterations =  1.8

     negative rho (up, down):  1.667E-06 0.000E+00

     total cpu time spent up to now is     2271.3 secs

     total energy              =    -560.34862556 Ry
     estimated scf accuracy    <       0.00000221 Ry

     iteration # 34     ecut=    80.00 Ry     beta= 0.70
     Davidson diagonalization with overlap

---- Real-time Memory Report at c_bands before calling an iterative solver
          1477 MiB given to the printing process from OS
             0 MiB allocation reported by mallinfo(arena+hblkhd)
        243365 MiB available memory on the node where the printing process lives
------------------
     ethr =  4.81E-09,  avg # of iterations =  3.4

     total cpu time spent up to now is     2299.1 secs

     total energy              =    -560.34862545 Ry
     estimated scf accuracy    <       0.00003355 Ry

     iteration # 35     ecut=    80.00 Ry     beta= 0.70
     Davidson diagonalization with overlap

---- Real-time Memory Report at c_bands before calling an iterative solver
          1477 MiB given to the printing process from OS
             0 MiB allocation reported by mallinfo(arena+hblkhd)
        243352 MiB available memory on the node where the printing process lives
------------------
     ethr =  4.81E-09,  avg # of iterations =  1.0

     total cpu time spent up to now is     2324.1 secs

     total energy              =    -560.34862558 Ry
     estimated scf accuracy    <       0.00000279 Ry

     iteration # 36     ecut=    80.00 Ry     beta= 0.70
     Davidson diagonalization with overlap

---- Real-time Memory Report at c_bands before calling an iterative solver
          1477 MiB given to the printing process from OS
             0 MiB allocation reported by mallinfo(arena+hblkhd)
        243337 MiB available memory on the node where the printing process lives
------------------
     ethr =  4.81E-09,  avg # of iterations =  1.0

     total cpu time spent up to now is     2349.1 secs

     total energy              =    -560.34862563 Ry
     estimated scf accuracy    <       0.00000001 Ry

     iteration # 37     ecut=    80.00 Ry     beta= 0.70
     Davidson diagonalization with overlap

---- Real-time Memory Report at c_bands before calling an iterative solver
          1477 MiB given to the printing process from OS
             0 MiB allocation reported by mallinfo(arena+hblkhd)
        243337 MiB available memory on the node where the printing process lives
------------------
     ethr =  2.93E-11,  avg # of iterations =  5.3

     total cpu time spent up to now is     2380.4 secs

     End of self-consistent calculation

          k = 0.0000 0.0000 0.0000 ( 21573 PWs)   bands (ev):

   -60.4818 -36.3733 -36.3733 -36.2816 -36.2816 -36.2601 -36.1076 -36.1076
   -35.9240 -35.9240 -35.8750 -34.6222 -34.5339 -34.5339 -14.7881 -13.7075
    -4.5179  -2.0666  -2.0666  -1.7648  -0.0683   0.0527   0.0527   0.9709
     2.6888   2.6888   4.1709   4.1951

     occupation numbers 
     1.0000   1.0000   1.0000   1.0000   1.0000   1.0000   1.0000   1.0000
     1.0000   1.0000   1.0000   1.0000   1.0000   1.0000   1.0000   1.0000
     1.0000   1.0000   1.0000   1.0000   1.0454   0.7407   0.7407   0.0000
     0.0000   0.0000   0.0000   0.0000

          k = 0.0000 0.0956 0.0000 ( 21621 PWs)   bands (ev):

   -60.4813 -36.3736 -36.3721 -36.2822 -36.2817 -36.2588 -36.1076 -36.1066
   -35.9243 -35.9241 -35.8744 -34.6227 -34.5394 -34.5356 -14.7264 -13.6410
    -4.4098  -2.3243  -2.0503  -1.6790  -0.2633   0.0434   0.1950   1.1034
     1.9323   2.5421   3.5226   4.1374

     occupation numbers 
     1.0000   1.0000   1.0000   1.0000   1.0000   1.0000   1.0000   1.0000
     1.0000   1.0000   1.0000   1.0000   1.0000   1.0000   1.0000   1.0000
     1.0000   1.0000   1.0000   1.0000   1.0375   0.7736   0.2483   0.0000
     0.0000   0.0000   0.0000   0.0000

          k = 0.0000 0.1913 0.0000 ( 21533 PWs)   bands (ev):

   -60.4799 -36.3740 -36.3691 -36.2838 -36.2819 -36.2553 -36.1076 -36.1036
   -35.9254 -35.9243 -35.8727 -34.6280 -34.5505 -34.5400 -14.5518 -13.4506
    -4.1178  -2.9214  -2.0326  -1.4319  -0.5303   0.0734   0.2578   0.4686
     1.2920   2.1814   3.0036   4.0268

     occupation numbers 
     1.0000   1.0000   1.0000   1.0000   1.0000   1.0000   1.0000   1.0000
     1.0000   1.0000   1.0000   1.0000   1.0000   1.0000   1.0000   1.0000
     1.0000   1.0000   1.0000   1.0000   1.0002   0.6652   0.1159   0.0023
     0.0000   0.0000   0.0000   0.0000

          k = 0.0000 0.2869 0.0000 ( 21481 PWs)   bands (ev):

   -60.4781 -36.3737 -36.3653 -36.2863 -36.2817 -36.2511 -36.1076 -36.0996
   -35.9267 -35.9247 -35.8704 -34.6452 -34.5554 -34.5461 -14.2971 -13.1669
    -3.9418  -3.4021  -2.0698  -1.0560  -1.0081  -0.7314   0.1175   0.2501
     1.2661   1.7576   3.2405   3.8271

     occupation numbers 
     1.0000   1.0000   1.0000   1.0000   1.0000   1.0000   1.0000   1.0000
     1.0000   1.0000   1.0000   1.0000   1.0000   1.0000   1.0000   1.0000
     1.0000   1.0000   1.0000   1.0000   1.0000   1.0000   0.4997   0.1285
     0.0000   0.0000   0.0000   0.0000

          k = 0.0000 0.3826 0.0000 ( 21492 PWs)   bands (ev):

   -60.4762 -36.3722 -36.3621 -36.2892 -36.2810 -36.2476 -36.1077 -36.0956
   -35.9281 -35.9251 -35.8681 -34.6702 -34.5523 -34.5522 -14.0192 -12.8485
    -4.4951  -3.1504  -2.2527  -2.1627  -0.7031  -0.5829  -0.1508   0.5944
     1.2813   1.3896   3.5468   3.8617

     occupation numbers 
     1.0000   1.0000   1.0000   1.0000   1.0000   1.0000   1.0000   1.0000
     1.0000   1.0000   1.0000   1.0000   1.0000   1.0000   1.0000   1.0000
     1.0000   1.0000   1.0000   1.0000   1.0000   1.0001   1.0823   0.0001
     0.0000   0.0000   0.0000   0.0000

          k = 0.0000 0.4782 0.0000 ( 21404 PWs)   bands (ev):

   -60.4749 -36.3704 -36.3600 -36.2916 -36.2802 -36.2455 -36.1077 -36.0927
   -35.9291 -35.9253 -35.8664 -34.6910 -34.5567 -34.5475 -13.7973 -12.5864
    -4.9871  -3.0887  -2.9684  -2.2534  -0.5164  -0.2036  -0.1092   0.9878
     1.1464   1.3012   3.2434   4.0655

     occupation numbers 
     1.0000   1.0000   1.0000   1.0000   1.0000   1.0000   1.0000   1.0000
     1.0000   1.0000   1.0000   1.0000   1.0000   1.0000   1.0000   1.0000
     1.0000   1.0000   1.0000   1.0000   1.0003   1.0648   1.0778   0.0000
     0.0000   0.0000   0.0000   0.0000

          k = 0.0000-0.5739 0.0000 ( 21446 PWs)   bands (ev):

   -60.4744 -36.3695 -36.3594 -36.2926 -36.2798 -36.2448 -36.1077 -36.0916
   -35.9295 -35.9254 -35.8658 -34.6988 -34.5583 -34.5454 -13.7114 -12.4828
    -5.1710  -3.3852  -2.9317  -2.2898  -0.5468   0.0063   0.1432   1.0619
     1.1821   1.2652   3.0893   3.6854

     occupation numbers 
     1.0000   1.0000   1.0000   1.0000   1.0000   1.0000   1.0000   1.0000
     1.0000   1.0000   1.0000   1.0000   1.0000   1.0000   1.0000   1.0000
     1.0000   1.0000   1.0000   1.0000   1.0002   0.8920   0.4077   0.0000
     0.0000   0.0000   0.0000   0.0000

          k = 0.0828 0.1435 0.0000 ( 21547 PWs)   bands (ev):

   -60.4803 -36.3739 -36.3701 -36.2832 -36.2820 -36.2563 -36.1075 -36.1046
   -35.9250 -35.9243 -35.8733 -34.6255 -34.5474 -34.5390 -14.6082 -13.5125
    -4.2075  -2.7263  -2.0668  -1.5124  -0.4255   0.0115   0.2742   0.9161
     1.2912   2.2092   3.0452   4.0377

     occupation numbers 
     1.0000   1.0000   1.0000   1.0000   1.0000   1.0000   1.0000   1.0000
     1.0000   1.0000   1.0000   1.0000   1.0000   1.0000   1.0000   1.0000
     1.0000   1.0000   1.0000   1.0000   1.0028   0.8769   0.0921   0.0000
     0.0000   0.0000   0.0000   0.0000

          k = 0.0828 0.2391 0.0000 ( 21517 PWs)   bands (ev):

   -60.4787 -36.3737 -36.3669 -36.2851 -36.2821 -36.2526 -36.1073 -36.1014
   -35.9262 -35.9246 -35.8713 -34.6369 -34.5543 -34.5451 -14.3930 -13.2746
    -3.9073  -3.2735  -2.1628  -1.1969  -0.6064  -0.4112   0.0625   0.2630
     1.3667   1.6707   2.9159   3.8758

     occupation numbers 
     1.0000   1.0000   1.0000   1.0000   1.0000   1.0000   1.0000   1.0000
     1.0000   1.0000   1.0000   1.0000   1.0000   1.0000   1.0000   1.0000
     1.0000   1.0000   1.0000   1.0000   1.0000   1.0037   0.7054   0.1079
     0.0000   0.0000   0.0000   0.0000

          k = 0.0828 0.3348 0.0000 ( 21500 PWs)   bands (ev):

   -60.4769 -36.3725 -36.3637 -36.2877 -36.2816 -36.2489 -36.1071 -36.0976
   -35.9275 -35.9251 -35.8690 -34.6584 -34.5553 -34.5507 -14.1248 -12.9708
    -4.1818  -3.2439  -2.2968  -1.6866  -0.7849  -0.7242  -0.0176   0.4509
     1.1591   1.3354   3.1395   3.8525

     occupation numbers 
     1.0000   1.0000   1.0000   1.0000   1.0000   1.0000   1.0000   1.0000
     1.0000   1.0000   1.0000   1.0000   1.0000   1.0000   1.0000   1.0000
     1.0000   1.0000   1.0000   1.0000   1.0000   1.0000   0.9546   0.0035
     0.0000   0.0000   0.0000   0.0000

          k = 0.0828 0.4304 0.0000 ( 21465 PWs)   bands (ev):

   -60.4753 -36.3706 -36.3614 -36.2903 -36.2807 -36.2463 -36.1070 -36.0943
   -35.9286 -35.9254 -35.8670 -34.6809 -34.5598 -34.5480 -13.8714 -12.6750
    -4.7293  -2.9904  -2.6833  -2.3909  -0.6315  -0.3547  -0.1873   0.7826
     0.9164   1.3251   3.0481   4.1768

     occupation numbers 
     1.0000   1.0000   1.0000   1.0000   1.0000   1.0000   1.0000   1.0000
     1.0000   1.0000   1.0000   1.0000   1.0000   1.0000   1.0000   1.0000
     1.0000   1.0000   1.0000   1.0000   1.0000   1.0104   1.0718   0.0000
     0.0000   0.0000   0.0000   0.0000

          k = 0.0828 0.5260 0.0000 ( 21428 PWs)   bands (ev):

   -60.4744 -36.3690 -36.3603 -36.2919 -36.2799 -36.2450 -36.1069 -36.0924
   -35.9293 -35.9256 -35.8658 -34.6947 -34.5633 -34.5446 -13.7140 -12.4865
    -5.0617  -3.2367  -2.9158  -2.4356  -0.5271  -0.1382   0.0326   0.5861
     1.2086   1.3748   2.8780   3.9111

     occupation numbers 
     1.0000   1.0000   1.0000   1.0000   1.0000   1.0000   1.0000   1.0000
     1.0000   1.0000   1.0000   1.0000   1.0000   1.0000   1.0000   1.0000
     1.0000   1.0000   1.0000   1.0000   1.0003   1.0833   0.8103   0.0001
     0.0000   0.0000   0.0000   0.0000

          k = 0.1657 0.2869 0.0000 ( 21491 PWs)   bands (ev):

   -60.4771 -36.3724 -36.3647 -36.2868 -36.2820 -36.2494 -36.1066 -36.0987
   -35.9272 -35.9251 -35.8693 -34.6530 -34.5564 -34.5513 -14.1629 -13.0146
    -4.0148  -3.2520  -2.4731  -1.3565  -0.8368  -0.7226   0.0686   0.3852
     0.8463   1.4321   2.8076   3.8716

     occupation numbers 
     1.0000   1.0000   1.0000   1.0000   1.0000   1.0000   1.0000   1.0000
     1.0000   1.0000   1.0000   1.0000   1.0000   1.0000   1.0000   1.0000
     1.0000   1.0000   1.0000   1.0000   1.0000   1.0000   0.6828   0.0140
     0.0000   0.0000   0.0000   0.0000

          k = 0.1657 0.3826 0.0000 ( 21457 PWs)   bands (ev):

   -60.4755 -36.3701 -36.3630 -36.2889 -36.2813 -36.2468 -36.1056 -36.0962
   -35.9281 -35.9257 -35.8673 -34.6714 -34.5656 -34.5479 -13.9148 -12.7268
    -4.4414  -2.9521  -2.7181  -2.2227  -0.8266  -0.4248  -0.0852   0.1354
     0.8959   1.3791   2.6894   4.1791

     occupation numbers 
     1.0000   1.0000   1.0000   1.0000   1.0000   1.0000   1.0000   1.0000
     1.0000   1.0000   1.0000   1.0000   1.0000   1.0000   1.0000   1.0000
     1.0000   1.0000   1.0000   1.0000   1.0000   1.0028   1.0628   0.4351
     0.0000   0.0000   0.0000   0.0000

          k = 0.1657 0.4782 0.0000 ( 21464 PWs)   bands (ev):

   -60.4744 -36.3679 -36.3622 -36.2906 -36.2803 -36.2453 -36.1049 -36.0943
   -35.9288 -35.9261 -35.8659 -34.6855 -34.5734 -34.5436 -13.7194 -12.4938
    -4.7921  -3.0070  -2.8491  -2.6412  -0.6955  -0.3063  -0.2837   0.0109
     1.1921   1.4928   2.6429   4.2703

     occupation numbers 
     1.0000   1.0000   1.0000   1.0000   1.0000   1.0000   1.0000   1.0000
     1.0000   1.0000   1.0000   1.0000   1.0000   1.0000   1.0000   1.0000
     1.0000   1.0000   1.0000   1.0000   1.0000   1.0219   1.0295   0.8788
     0.0000   0.0000   0.0000   0.0000

          k = 0.1657 0.5739 0.0000 ( 21454 PWs)   bands (ev):

   -60.4740 -36.3670 -36.3619 -36.2914 -36.2799 -36.2448 -36.1046 -36.0937
   -35.9291 -35.9263 -35.8654 -34.6908 -34.5764 -34.5419 -13.6444 -12.4027
    -4.9257  -3.0833  -3.0558  -2.6084  -0.5794  -0.4507  -0.2780   0.1599
     1.0615   1.7433   2.7382   3.9530

     occupation numbers 
     1.0000   1.0000   1.0000   1.0000   1.0000   1.0000   1.0000   1.0000
     1.0000   1.0000   1.0000   1.0000   1.0000   1.0000   1.0000   1.0000
     1.0000   1.0000   1.0000   1.0000   1.0001   1.0016   1.0316   0.3520
     0.0000   0.0000   0.0000   0.0000

          k = 0.2485 0.4304 0.0000 ( 21466 PWs)   bands (ev):

   -60.4744 -36.3672 -36.3633 -36.2900 -36.2805 -36.2454 -36.1035 -36.0957
   -35.9285 -35.9265 -35.8659 -34.6803 -34.5789 -34.5433 -13.7221 -12.4974
    -4.6098  -3.1871  -2.6490  -2.5564  -0.8570  -0.8026  -0.2565   0.0081
     1.1705   1.5096   2.5726   4.4449

     occupation numbers 
     1.0000   1.0000   1.0000   1.0000   1.0000   1.0000   1.0000   1.0000
     1.0000   1.0000   1.0000   1.0000   1.0000   1.0000   1.0000   1.0000
     1.0000   1.0000   1.0000   1.0000   1.0000   1.0000   1.0405   0.8868
     0.0000   0.0000   0.0000   0.0000

          k = 0.2485 0.5260 0.0000 ( 21458 PWs)   bands (ev):

   -60.4737 -36.3653 -36.3635 -36.2909 -36.2797 -36.2448 -36.1019 -36.0959
   -35.9286 -35.9270 -35.8651 -34.6843 -34.5881 -34.5404 -13.6054 -12.3558
    -4.6785  -3.4519  -2.6914  -2.5447  -1.3661  -0.7381  -0.3079   0.2323
     0.9111   1.8235   2.9181   4.2734

     occupation numbers 
     1.0000   1.0000   1.0000   1.0000   1.0000   1.0000   1.0000   1.0000
     1.0000   1.0000   1.0000   1.0000   1.0000   1.0000   1.0000   1.0000
     1.0000   1.0000   1.0000   1.0000   1.0000   1.0000   1.0214   0.1614
     0.0000   0.0000   0.0000   0.0000

          k = 0.3313 0.5739 0.0000 ( 21462 PWs)   bands (ev):

   -60.4735 -36.3642 -36.3642 -36.2910 -36.2793 -36.2447 -36.0986 -36.0986
   -35.9279 -35.9279 -35.8649 -34.6824 -34.5949 -34.5392 -13.5632 -12.3041
    -4.5508  -3.7176  -2.4941  -2.1897  -2.1891  -0.7369  -0.3197   0.3202
     0.7651   1.8629   3.2958   4.3840

     occupation numbers 
     1.0000   1.0000   1.0000   1.0000   1.0000   1.0000   1.0000   1.0000
     1.0000   1.0000   1.0000   1.0000   1.0000   1.0000   1.0000   1.0000
     1.0000   1.0000   1.0000   1.0000   1.0000   1.0000   1.0181   0.0453
     0.0000   0.0000   0.0000   0.0000

     the Fermi energy is     0.1453 ev

!    total energy              =    -560.34862563 Ry
     estimated scf accuracy    <          2.8E-10 Ry
     smearing contrib. (-TS)   =      -0.00018316 Ry
     internal energy E=F+TS    =    -560.34844247 Ry

     The total energy is F=E-TS. E is the sum of the following terms:
     one-electron contribution =   -2291.91582010 Ry
     hartree contribution      =    1145.11415414 Ry
     xc contribution           =    -118.79001048 Ry
     ewald contribution        =     705.24323397 Ry

     convergence has been achieved in  37 iterations

     Forces acting on atoms (cartesian axes, Ry/au):

     atom    1 type  2   force =     0.00000000    0.00000000    0.00217183
     atom    2 type  2   force =     0.00000000    0.00000000   -0.10444213
     atom    3 type  1   force =     0.00000000    0.00000000    0.10227030
     The non-local contrib.  to forces
     atom    1 type  2   force =     0.00000000    0.00000000    0.01772895
     atom    2 type  2   force =     0.00000000    0.00000000    0.36191211
     atom    3 type  1   force =     0.00000000   -0.00000000   -0.22263537
     The ionic contribution  to forces
     atom    1 type  2   force =     0.00000000   -0.00000000  -83.09704228
     atom    2 type  2   force =     0.00000029   -0.00000017   -4.35820640
     atom    3 type  1   force =    -0.00000029    0.00000017   87.45524868
     The local contribution  to forces
     atom    1 type  2   force =     0.00000375   -0.00000216   83.08200113
     atom    2 type  2   force =     0.00000360   -0.00000208    3.90654450
     atom    3 type  1   force =    -0.00000241    0.00000139  -87.14342145
     The core correction contribution to forces
     atom    1 type  2   force =     0.00000019   -0.00000011   -0.00048981
     atom    2 type  2   force =     0.00000019   -0.00000011   -0.01478579
     atom    3 type  1   force =     0.00000005   -0.00000003    0.01308950
     The Hubbard contrib.    to forces
     atom    1 type  2   force =     0.00000000    0.00000000    0.00000000
[...]
    -3.8495  -1.3677   0.1325   0.7070   0.7070   1.4527   2.0014   2.0014
     5.6128   5.9498   5.9498   5.9729

     occupation numbers 
     1.0000   1.0000   1.0000   1.0000   1.0000   1.0000   1.0000   1.0000
     1.0000   1.0000   1.0000   1.0000   1.0000   1.0000   1.0000   1.0000
     1.0000   1.0000   1.0000   1.0000   1.0000   1.0741   0.0197   0.0197
     0.0000   0.0000   0.0000   0.0000

          k = 0.0000 0.1063 0.0000 ( 16899 PWs)   bands (ev):

   -59.2120 -35.2945 -35.2898 -35.1864 -35.1843 -35.1759 -34.6065 -34.6026
   -34.4320 -34.4309 -34.4184 -33.4773 -33.0840 -33.0688 -14.5177 -13.2565
    -3.7085  -1.2416   0.1722   0.3646   0.7640   1.2619   1.9587   2.2928
     4.8983   5.1214   5.7924   5.8165

     occupation numbers 
     1.0000   1.0000   1.0000   1.0000   1.0000   1.0000   1.0000   1.0000
     1.0000   1.0000   1.0000   1.0000   1.0000   1.0000   1.0000   1.0000
     1.0000   1.0000   1.0000   1.0000   1.0000   1.0077   0.0420   0.0000
     0.0000   0.0000   0.0000   0.0000

          k = 0.0000 0.2125 0.0000 ( 16929 PWs)   bands (ev):

   -59.2068 -35.2966 -35.2787 -35.1940 -35.1863 -35.1704 -34.6072 -34.5924
   -34.4360 -34.4319 -34.4123 -33.4616 -33.1371 -33.0807 -14.1924 -12.9177
    -3.3205  -0.8832  -0.5867   0.3652   0.8112   0.9590   1.9834   2.5316
     2.8189   3.9954   5.2339   5.5287

     occupation numbers 
     1.0000   1.0000   1.0000   1.0000   1.0000   1.0000   1.0000   1.0000
     1.0000   1.0000   1.0000   1.0000   1.0000   1.0000   1.0000   1.0000
     1.0000   1.0000   1.0000   1.0000   1.0000   1.0000   0.0274   0.0000
     0.0000   0.0000   0.0000   0.0000

          k = 0.0000 0.3188 0.0000 ( 16947 PWs)   bands (ev):

   -59.1996 -35.3000 -35.2636 -35.2040 -35.1891 -35.1627 -34.6083 -34.5784
   -34.4414 -34.4333 -34.4036 -33.4402 -33.2088 -33.0969 -13.6865 -12.3878
    -2.8290  -1.8935  -0.3339   0.4317   0.5919   0.6400   0.8211   2.2617
     2.3401   4.1869   4.5253   5.1630

     occupation numbers 
     1.0000   1.0000   1.0000   1.0000   1.0000   1.0000   1.0000   1.0000
     1.0000   1.0000   1.0000   1.0000   1.0000   1.0000   1.0000   1.0000
     1.0000   1.0000   1.0000   1.0000   1.0000   1.0000   1.0000   0.0000
     0.0000   0.0000   0.0000   0.0000

          k = 0.0000 0.4251 0.0000 ( 16897 PWs)   bands (ev):

   -59.1923 -35.3037 -35.2485 -35.2137 -35.1919 -35.1548 -34.6098 -34.5643
   -34.4469 -34.4347 -34.3947 -33.4189 -33.2795 -33.1131 -13.0761 -11.7432
    -3.4757  -2.2107  -1.3440  -0.0930   0.3610   0.6476   1.1078   2.2570
     2.9364   3.9336   4.8429   4.8753

     occupation numbers 
     1.0000   1.0000   1.0000   1.0000   1.0000   1.0000   1.0000   1.0000
     1.0000   1.0000   1.0000   1.0000   1.0000   1.0000   1.0000   1.0000
     1.0000   1.0000   1.0000   1.0000   1.0000   1.0000   1.0003   0.0000
     0.0000   0.0000   0.0000   0.0000

          k = 0.0000 0.5313 0.0000 ( 16913 PWs)   bands (ev):

   -59.1870 -35.3067 -35.2375 -35.2207 -35.1938 -35.1490 -34.6110 -34.5540
   -34.4508 -34.4357 -34.3880 -33.4033 -33.3309 -33.1249 -12.5211 -11.1510
    -4.5995  -2.7330  -1.9588  -0.2338   0.1424   1.1838   1.7186   2.4688
     3.5268   3.5591   4.5809   5.5178

     occupation numbers 
     1.0000   1.0000   1.0000   1.0000   1.0000   1.0000   1.0000   1.0000
     1.0000   1.0000   1.0000   1.0000   1.0000   1.0000   1.0000   1.0000
     1.0000   1.0000   1.0000   1.0000   1.0000   1.0016   0.6227   0.0000
     0.0000   0.0000   0.0000   0.0000

          k = 0.0000-0.6376 0.0000 ( 16884 PWs)   bands (ev):

   -59.1851 -35.3079 -35.2335 -35.2232 -35.1944 -35.1468 -34.6115 -34.5503
   -34.4523 -34.4361 -34.3855 -33.3974 -33.3498 -33.1292 -12.2819 -10.8935
    -5.0458  -3.2592  -1.8876  -0.3002   0.0621   1.4862   2.0371   2.5983
     3.4201   3.8382   4.4301   5.5636

     occupation numbers 
     1.0000   1.0000   1.0000   1.0000   1.0000   1.0000   1.0000   1.0000
     1.0000   1.0000   1.0000   1.0000   1.0000   1.0000   1.0000   1.0000
     1.0000   1.0000   1.0000   1.0000   1.0000   1.0827   0.0098   0.0000
     0.0000   0.0000   0.0000   0.0000

          k = 0.0920 0.1594 0.0000 ( 16925 PWs)   bands (ev):

   -59.2084 -35.2954 -35.2827 -35.1914 -35.1858 -35.1722 -34.6066 -34.5960
   -34.4347 -34.4317 -34.4142 -33.4666 -33.1193 -33.0779 -14.2992 -13.0290
    -3.4429  -0.9943  -0.2389   0.2995   0.6162   1.2400   1.8397   2.6342
     3.5110   4.1656   5.2116   5.4776

     occupation numbers 
     1.0000   1.0000   1.0000   1.0000   1.0000   1.0000   1.0000   1.0000
     1.0000   1.0000   1.0000   1.0000   1.0000   1.0000   1.0000   1.0000
     1.0000   1.0000   1.0000   1.0000   1.0000   1.0052   0.2207   0.0000
     0.0000   0.0000   0.0000   0.0000

          k = 0.0920 0.2657 0.0000 ( 16928 PWs)   bands (ev):

   -59.2022 -35.2971 -35.2707 -35.1998 -35.1886 -35.1656 -34.6066 -34.5848
   -34.4392 -34.4331 -34.4069 -33.4480 -33.1791 -33.0946 -13.8823 -12.5934
    -2.9881  -1.2677  -0.5238   0.1902   0.4639   1.1689   1.5395   1.9698
     2.7156   3.8137   4.2521   5.0195

     occupation numbers 
     1.0000   1.0000   1.0000   1.0000   1.0000   1.0000   1.0000   1.0000
     1.0000   1.0000   1.0000   1.0000   1.0000   1.0000   1.0000   1.0000
     1.0000   1.0000   1.0000   1.0000   1.0000   1.0012   1.0698   0.0348
     0.0000   0.0000   0.0000   0.0000

          k = 0.0920 0.3719 0.0000 ( 16882 PWs)   bands (ev):

   -59.1950 -35.2997 -35.2566 -35.2093 -35.1918 -35.1578 -34.6069 -34.5716
   -34.4444 -34.4347 -34.3981 -33.4266 -33.2473 -33.1139 -13.3186 -12.0002
    -2.8547  -2.2521  -0.4338  -0.1692   0.0801   0.5300   1.0604   2.2024
     2.8379   3.4297   4.1401   4.9195

     occupation numbers 
     1.0000   1.0000   1.0000   1.0000   1.0000   1.0000   1.0000   1.0000
     1.0000   1.0000   1.0000   1.0000   1.0000   1.0000   1.0000   1.0000
     1.0000   1.0000   1.0000   1.0000   1.0000   1.0000   1.0001   0.0002
     0.0000   0.0000   0.0000   0.0000

          k = 0.0920 0.4782 0.0000 ( 16891 PWs)   bands (ev):

   -59.1887 -35.3023 -35.2443 -35.2171 -35.1944 -35.1511 -34.6076 -34.5600
   -34.4489 -34.4361 -34.3904 -33.4079 -33.3058 -33.1306 -12.7199 -11.3644
    -4.0344  -2.0634  -1.9899  -0.4246   0.1461   1.0059   1.3369   2.3698
     2.8607   3.3893   4.1380   5.4635

     occupation numbers 
     1.0000   1.0000   1.0000   1.0000   1.0000   1.0000   1.0000   1.0000
     1.0000   1.0000   1.0000   1.0000   1.0000   1.0000   1.0000   1.0000
     1.0000   1.0000   1.0000   1.0000   1.0000   1.0000   1.0248   0.0000
     0.0000   0.0000   0.0000   0.0000

          k = 0.0920 0.5844 0.0000 ( 16901 PWs)   bands (ev):

   -59.1851 -35.3040 -35.2372 -35.2215 -35.1958 -35.1474 -34.6081 -34.5532
   -34.4515 -34.4369 -34.3859 -33.3967 -33.3397 -33.1402 -12.2982 -10.9119
    -4.8393  -3.0234  -1.8426  -0.5986   0.0733   1.4475   1.8308   2.5625
     2.5736   3.7657   4.1076   5.7807

     occupation numbers 
     1.0000   1.0000   1.0000   1.0000   1.0000   1.0000   1.0000   1.0000
     1.0000   1.0000   1.0000   1.0000   1.0000   1.0000   1.0000   1.0000
     1.0000   1.0000   1.0000   1.0000   1.0000   1.0721   0.2433   0.0000
     0.0000   0.0000   0.0000   0.0000

          k = 0.1841 0.3188 0.0000 ( 16899 PWs)   bands (ev):

   -59.1959 -35.2961 -35.2617 -35.2070 -35.1924 -35.1589 -34.6042 -34.5759
   -34.4431 -34.4350 -34.3994 -33.4293 -33.2307 -33.1190 -13.4040 -12.0905
    -2.6672  -2.0290  -0.5285   0.0037   0.1329   0.5197   1.0387   2.2785
     2.8255   2.9484   3.6065   4.8969

     occupation numbers 
     1.0000   1.0000   1.0000   1.0000   1.0000   1.0000   1.0000   1.0000
     1.0000   1.0000   1.0000   1.0000   1.0000   1.0000   1.0000   1.0000
     1.0000   1.0000   1.0000   1.0000   1.0000   1.0000   1.0000   0.0000
     0.0000   0.0000   0.0000   0.0000

          k = 0.1841 0.4251 0.0000 ( 16860 PWs)   bands (ev):

   -59.1897 -35.2951 -35.2528 -35.2135 -35.1964 -35.1526 -34.6016 -34.5673
   -34.4469 -34.4372 -34.3921 -33.4104 -33.2795 -33.1461 -12.8355 -11.4883
    -3.4033  -1.9737  -1.2859  -1.0567   0.3621   0.8007   1.0322   1.7487
     2.4695   3.0784   3.7456   5.4994

     occupation numbers 
     1.0000   1.0000   1.0000   1.0000   1.0000   1.0000   1.0000   1.0000
     1.0000   1.0000   1.0000   1.0000   1.0000   1.0000   1.0000   1.0000
     1.0000   1.0000   1.0000   1.0000   1.0000   1.0000   1.0000   0.5095
     0.0000   0.0000   0.0000   0.0000

          k = 0.1841 0.5313 0.0000 ( 16865 PWs)   bands (ev):

   -59.1851 -35.2947 -35.2460 -35.2179 -35.1992 -35.1484 -34.5999 -34.5606
   -34.4495 -34.4388 -34.3869 -33.3958 -33.3145 -33.1669 -12.3301 -10.9478
    -4.3041  -2.4049  -1.8300  -1.3332   0.3229   1.1369   1.2382   1.5025
     2.5317   3.1081   4.2443   6.2222

     occupation numbers 
     1.0000   1.0000   1.0000   1.0000   1.0000   1.0000   1.0000   1.0000
     1.0000   1.0000   1.0000   1.0000   1.0000   1.0000   1.0000   1.0000
     1.0000   1.0000   1.0000   1.0000   1.0000   1.0006   1.0050   1.0831
     0.0000   0.0000   0.0000   0.0000

          k = 0.1841 0.6376 0.0000 ( 16878 PWs)   bands (ev):

   -59.1834 -35.2946 -35.2434 -35.2193 -35.2002 -35.1470 -34.5993 -34.5580
   -34.4505 -34.4395 -34.3850 -33.3901 -33.3276 -33.1747 -12.1168 -10.7179
    -4.6716  -2.8417  -1.8204  -1.4057   0.2903   0.9424   1.4229   1.8212
     2.5790   3.1093   4.5273   6.0725

     occupation numbers 
     1.0000   1.0000   1.0000   1.0000   1.0000   1.0000   1.0000   1.0000
     1.0000   1.0000   1.0000   1.0000   1.0000   1.0000   1.0000   1.0000
     1.0000   1.0000   1.0000   1.0000   1.0000   1.0000   1.0615   0.2692
     0.0000   0.0000   0.0000   0.0000

          k = 0.2761 0.4782 0.0000 ( 16833 PWs)   bands (ev):

   -59.1851 -35.2884 -35.2519 -35.2155 -35.2015 -35.1489 -34.5942 -34.5658
   -34.4482 -34.4401 -34.3874 -33.3955 -33.2973 -33.1847 -12.3458 -10.9654
    -3.8904  -2.1498  -1.9155  -1.5097   0.3392   0.6616   0.8276   1.4685
     2.5779   2.7366   4.3349   6.3995

     occupation numbers 
     1.0000   1.0000   1.0000   1.0000   1.0000   1.0000   1.0000   1.0000
     1.0000   1.0000   1.0000   1.0000   1.0000   1.0000   1.0000   1.0000
     1.0000   1.0000   1.0000   1.0000   1.0000   1.0000   1.0000   1.0792
     0.0000   0.0000   0.0000   0.0000

          k = 0.2761 0.5844 0.0000 ( 16847 PWs)   bands (ev):

   -59.1824 -35.2833 -35.2524 -35.2157 -35.2052 -35.1472 -34.5884 -34.5663
   -34.4485 -34.4424 -34.3848 -33.3863 -33.3013 -33.2140 -12.0198 -10.6146
    -4.1861  -2.6593  -2.2757  -1.4145  -0.4391   0.6536   1.0844   1.9123
     2.3543   2.8187   4.9030   6.5446

     occupation numbers 
     1.0000   1.0000   1.0000   1.0000   1.0000   1.0000   1.0000   1.0000
     1.0000   1.0000   1.0000   1.0000   1.0000   1.0000   1.0000   1.0000
     1.0000   1.0000   1.0000   1.0000   1.0000   1.0000   1.0001   0.0867
     0.0000   0.0000   0.0000   0.0000

          k = 0.3681 0.6376 0.0000 ( 16809 PWs)   bands (ev):

   -59.1815 -35.2758 -35.2580 -35.2118 -35.2106 -35.1470 -34.5762 -34.5762
   -34.4459 -34.4459 -34.3842 -33.3829 -33.2774 -33.2502 -11.9003 -10.4859
    -3.7779  -3.4334  -1.6152  -1.6129  -1.3400   0.9036   0.9461   2.0869
     2.1742   2.7917   5.2685   6.6030

     occupation numbers 
     1.0000   1.0000   1.0000   1.0000   1.0000   1.0000   1.0000   1.0000
     1.0000   1.0000   1.0000   1.0000   1.0000   1.0000   1.0000   1.0000
     1.0000   1.0000   1.0000   1.0000   1.0000   1.0000   1.0000   0.0033
     0.0004   0.0000   0.0000   0.0000

     the Fermi energy is     1.7792 ev

!    total energy              =    -560.43524815 Ry
     estimated scf accuracy    <          8.9E-12 Ry
     smearing contrib. (-TS)   =       0.00019209 Ry
     internal energy E=F+TS    =    -560.43544024 Ry

     The total energy is F=E-TS. E is the sum of the following terms:
     one-electron contribution =   -2613.25799476 Ry
     hartree contribution      =    1307.95580537 Ry
     xc contribution           =    -118.88395702 Ry
     ewald contribution        =     863.75070617 Ry

     convergence has been achieved in  16 iterations

     Forces acting on atoms (cartesian axes, Ry/au):

     atom    1 type  2   force =     0.00000000    0.00000000    0.00003968
     atom    2 type  2   force =     0.00000000    0.00000000   -0.00000963
     atom    3 type  1   force =     0.00000000    0.00000000   -0.00003006
     The non-local contrib.  to forces
     atom    1 type  2   force =     0.00000000   -0.00000000    0.02349657
     atom    2 type  2   force =     0.00000000    0.00000000    0.36467122
     atom    3 type  1   force =     0.00000000    0.00000000   -0.18254670
     The ionic contribution  to forces
     atom    1 type  2   force =     0.00000000   -0.00000000 -107.81210246
     atom    2 type  2   force =     0.00000012   -0.00000007   -4.50680634
     atom    3 type  1   force =    -0.00000012    0.00000007  112.31890880
     The local contribution  to forces
     atom    1 type  2   force =     0.00000327   -0.00000189  107.78942609
     atom    2 type  2   force =     0.00000321   -0.00000185    4.16426033
     atom    3 type  1   force =    -0.00000215    0.00000124 -112.14624553
     The core correction contribution to forces
     atom    1 type  2   force =     0.00000017   -0.00000010   -0.00080352
     atom    2 type  2   force =     0.00000017   -0.00000010   -0.02212698
     atom    3 type  1   force =     0.00000004   -0.00000003    0.00985854
     The Hubbard contrib.    to forces
     atom    1 type  2   force =     0.00000000    0.00000000    0.00000000
     atom    2 type  2   force =     0.00000000    0.00000000    0.00000000
     atom    3 type  1   force =     0.00000000    0.00000000    0.00000000
     The SCF correction term to forces
     atom    1 type  2   force =    -0.00000000    0.00000000    0.00002259
     atom    2 type  2   force =    -0.00000000    0.00000000   -0.00000828
     atom    3 type  1   force =     0.00000000   -0.00000000   -0.00000559

     Total force =     0.000051     Total SCF correction =     0.000025
     SCF correction compared to forces is large: reduce conv_thr to get better values


     Computing stress (Cartesian axis) and pressure

          total   stress  (Ry/bohr**3)                   (kbar)     P=       -0.26
  -0.00000140   0.00000000   0.00000000           -0.21        0.00        0.00
  -0.00000000  -0.00000140  -0.00000000           -0.00       -0.21       -0.00
   0.00000000   0.00000000  -0.00000242            0.00        0.00       -0.36

     kinetic stress (kbar)  19118.90     -0.00     -0.00
                               -0.00  19118.90      0.00
                               -0.00      0.00  19137.49

     local   stress (kbar)-257200.33     -0.00      0.00
                               -0.00-257200.33     -0.00
                                0.00     -0.00 256329.56

     nonloc. stress (kbar)  -6494.33      0.00      0.00
                                0.00  -6494.33      0.00
                                0.00      0.00  -6426.13

     hartree stress (kbar) 129950.27      0.00      0.00
                                0.00 129950.27     -0.00
                                0.00     -0.00-122251.94

     exc-cor stress (kbar)   3788.56      0.00     -0.00
                                0.00   3788.56      0.00
                               -0.00      0.00   3783.41

     corecor stress (kbar)  -6599.76      0.00     -0.00
                                0.00  -6599.76      0.00
                               -0.00      0.00  -6600.42

     ewald   stress (kbar) 117436.50      0.00     -0.00
                                0.00 117436.50      0.00
                               -0.00      0.00-143972.33

     hubbard stress (kbar)      0.00      0.00      0.00
                                0.00      0.00      0.00
                                0.00      0.00      0.00

     DFT-D   stress (kbar)      0.00      0.00      0.00
                                0.00      0.00      0.00
                                0.00      0.00      0.00

     XDM     stress (kbar)      0.00      0.00      0.00
                                0.00      0.00      0.00
                                0.00      0.00      0.00

     dft-nl  stress (kbar)      0.00      0.00      0.00
                                0.00      0.00      0.00
                                0.00      0.00      0.00

     TS-vdW  stress (kbar)      0.00      0.00      0.00
                                0.00      0.00      0.00
                                0.00      0.00      0.00

     MDB     stress (kbar)      0.00      0.00      0.00
                                0.00      0.00      0.00
                                0.00      0.00      0.00

     3D-RISM stress (kbar)      0.00      0.00      0.00
                                0.00      0.00      0.00
                                0.00      0.00      0.00


     Writing all to output data dir ./MoTe2.save/
 
     init_run     :     25.18s CPU     30.50s WALL (       2 calls)
     electrons    :  16432.62s CPU  22297.20s WALL (      26 calls)
     update_pot   :    221.32s CPU    223.56s WALL (      24 calls)
     forces       :    185.52s CPU    192.72s WALL (      26 calls)
     stress       :   1316.27s CPU   1337.31s WALL (      26 calls)

     Called by init_run:
     wfcinit      :     12.13s CPU     17.00s WALL (       2 calls)
     wfcinit:atom :      0.16s CPU      0.17s WALL (      38 calls)
     wfcinit:wfcr :     11.20s CPU     16.05s WALL (      38 calls)
     potinit      :      4.62s CPU      4.78s WALL (       2 calls)
     hinit0       :      8.25s CPU      8.49s WALL (       2 calls)

     Called by electrons:
     c_bands      :  14521.22s CPU  19605.46s WALL (     645 calls)
     sum_band     :   1783.79s CPU   2522.79s WALL (     645 calls)
     v_of_rho     :    103.95s CPU    137.25s WALL (     670 calls)
     v_h          :      6.99s CPU     10.61s WALL (     670 calls)
     v_xc         :    104.31s CPU    136.29s WALL (     722 calls)
     mix_rho      :     24.74s CPU     31.62s WALL (     645 calls)

     Called by c_bands:
     init_us_2    :    228.61s CPU    230.15s WALL (   25536 calls)
     init_us_2:cp :    228.41s CPU    230.02s WALL (   25536 calls)
     cegterg      :  12607.83s CPU  17652.03s WALL (   12407 calls)

     Called by sum_band:
     sum_band:wei :      1.00s CPU      1.13s WALL (     645 calls)
     sum_band:loo :   1751.41s CPU   2468.48s WALL (     645 calls)
     sum_band:buf :      8.65s CPU      8.86s WALL (   12255 calls)
     sum_band:ini :    109.87s CPU    110.60s WALL (   12255 calls)

     Called by *egterg:
     cdiaghg      :     69.98s CPU     75.79s WALL (   60755 calls)
     cegterg:over :    719.20s CPU    948.29s WALL (   48863 calls)
     cegterg:upda :    252.81s CPU    255.90s WALL (   48863 calls)
     cegterg:last :    390.95s CPU    393.52s WALL (   30427 calls)
     h_psi        :  10576.57s CPU  15131.55s WALL (   61308 calls)
     g_psi        :    103.30s CPU    104.59s WALL (   48863 calls)

     Called by h_psi:
     h_psi:calbec :    718.80s CPU    887.49s WALL (   61308 calls)
     vloc_psi     :   9339.80s CPU  13717.55s WALL (   61308 calls)
     add_vuspsi   :    491.54s CPU    496.62s WALL (   61308 calls)

     General routines
     calbec       :    756.24s CPU    930.38s WALL (   63778 calls)
     fft          :     64.34s CPU    107.65s WALL (    7349 calls)
     ffts         :      6.13s CPU     10.28s WALL (     645 calls)
     fftw         :  10158.38s CPU  15190.89s WALL ( 2359378 calls)
 
     Parallel routines
 
     PWSCF        :      5h 3m CPU      6h41m WALL

 
   This run was terminated on:  20: 6:17  10Jan2024            

=------------------------------------------------------------------------------=
   JOB DONE.
=------------------------------------------------------------------------------=
